MODEL 1
REMARK VINA RESULT:     -10.2      0.000      0.000
REMARK  19 active torsions:
REMARK  status: ('A' for Active; 'I' for Inactive)
REMARK    1  A    between atoms: PA_1  and  O5B_4 
REMARK    2  A    between atoms: PA_1  and  O3_30 
REMARK    3  A    between atoms: O5B_4  and  C5B_5 
REMARK    4  A    between atoms: C5B_5  and  C4B_6 
REMARK    5  A    between atoms: C3B_8  and  O3B_9 
REMARK    6  A    between atoms: C2B_11  and  O2B_12 
REMARK    7  A    between atoms: C1B_14  and  N9A_15 
REMARK    8  A    between atoms: C6A_20  and  N6A_21 
REMARK    9  A    between atoms: O3_30  and  PN_31 
REMARK   10  A    between atoms: PN_31  and  O5D_34 
REMARK   11  A    between atoms: O5D_34  and  C5D_35 
REMARK   12  A    between atoms: C5D_35  and  C4D_36 
REMARK   13  A    between atoms: C3D_38  and  O3D_39 
REMARK   14  A    between atoms: C2D_41  and  O2D_42 
REMARK   15  A    between atoms: C1D_44  and  N1N_45 
REMARK   16  A    between atoms: C3N_47  and  C7N_48 
REMARK       I    between atoms: C7N_48  and  N7N_50 
REMARK   17  A    between atoms: C4N_53  and  C7Z_56 
REMARK   18  A    between atoms: C7Z_56  and  O7Z_57 
REMARK   19  A    between atoms: C7Z_56  and  C4Z_63 
ROOT
HETATM    1  PN  ZID A 300       1.157 -35.482  12.548  1.00 26.51     0.417 P 
HETATM    2  O1N ZID A 300       0.203 -36.135  13.495  1.00 30.48    -0.624 OA
HETATM    3  O2N ZID A 300       1.917 -36.262  11.514  1.00 28.40    -0.624 OA
ENDROOT
BRANCH   1   4
HETATM    4  O3  ZID A 300       2.122 -34.572  13.501  1.00 30.29    -0.180 OA
BRANCH   4   5
HETATM    5  PA  ZID A 300       3.582 -34.987  14.140  1.00 28.62     0.417 P 
HETATM    6  O1A ZID A 300       3.825 -33.920  15.177  1.00 28.37    -0.624 OA
HETATM    7  O2A ZID A 300       3.649 -36.451  14.445  1.00 30.19    -0.624 OA
BRANCH   5   8
HETATM    8  O5B ZID A 300       4.550 -34.810  12.887  1.00 29.52    -0.287 OA
BRANCH   8   9
HETATM    9  C5B ZID A 300       5.797 -35.470  12.779  1.00 27.76     0.216 C 
BRANCH   9  10
HETATM   10  C4B ZID A 300       6.436 -34.766  11.603  1.00 27.48     0.180 C 
HETATM   11  O4B ZID A 300       5.832 -33.487  11.454  1.00 27.81    -0.353 OA
HETATM   12  C1B ZID A 300       6.837 -32.650  10.951  1.00 28.20     0.262 C 
HETATM   13  C2B ZID A 300       8.069 -33.015  11.791  1.00 28.50     0.198 C 
HETATM   14  C3B ZID A 300       7.946 -34.519  11.821  1.00 25.42     0.182 C 
BRANCH  12  15
HETATM   15  N9A ZID A 300       6.581 -31.214  11.040  1.00 26.08    -0.297 N 
HETATM   16  C8A ZID A 300       6.678 -30.459  12.146  1.00 24.53     0.188 A 
HETATM   17  N7A ZID A 300       6.465 -29.200  11.790  1.00 23.35    -0.346 N 
HETATM   18  C5A ZID A 300       6.294 -29.159  10.440  1.00 25.38     0.122 A 
ATOM     19  H7A ZID A 300       6.434 -28.399  12.420  1.00  0.00     0.167 HD
HETATM   20  C6A ZID A 300       6.055 -28.136   9.535  1.00 23.71     0.131 A 
HETATM   21  C4A ZID A 300       6.393 -30.438   9.981  1.00 23.66     0.142 A 
HETATM   22  N1A ZID A 300       5.890 -28.451   8.247  1.00 27.06    -0.337 N 
HETATM   23  C2A ZID A 300       6.017 -29.729   7.819  1.00 25.81     0.183 A 
ATOM     24  H1A ZID A 300       5.666 -27.716   7.575  1.00  0.00     0.168 HD
HETATM   25  N3A ZID A 300       6.251 -30.714   8.678  1.00 26.02    -0.336 N 
ATOM     26  H3A ZID A 300       6.321 -31.676   8.346  1.00  0.00     0.168 HD
BRANCH  20  27
HETATM   27  N6A ZID A 300       5.959 -26.846   9.931  1.00 26.06    -0.383 N 
ATOM     28 2H6A ZID A 300       5.842 -26.626  10.920  1.00  0.00     0.157 HD
ATOM     29 1H6A ZID A 300       6.021 -26.075   9.265  1.00  0.00     0.157 HD
ENDBRANCH  20  27
ENDBRANCH  12  15
BRANCH  13  30
HETATM   30  O2B ZID A 300       9.285 -32.568  11.170  1.00 34.28    -0.388 OA
ATOM     31  H2B ZID A 300       9.450 -31.643  11.308  1.00  0.00     0.210 HD
ENDBRANCH  13  30
BRANCH  14  32
HETATM   32  O3B ZID A 300       8.634 -35.051  10.711  1.00 26.39    -0.390 OA
ATOM     33  H3B ZID A 300       9.204 -34.372  10.370  1.00  0.00     0.210 HD
ENDBRANCH  14  32
ENDBRANCH   9  10
ENDBRANCH   8   9
ENDBRANCH   5   8
ENDBRANCH   4   5
ENDBRANCH   1   4
BRANCH   1  34
HETATM   34  O5D ZID A 300       0.454 -34.296  11.761  1.00 27.38    -0.287 OA
BRANCH  34  35
HETATM   35  C5D ZID A 300       0.467 -34.189  10.341  1.00 26.32     0.216 C 
BRANCH  35  36
HETATM   36  C4D ZID A 300       1.206 -32.908   9.947  1.00 26.54     0.180 C 
HETATM   37  O4D ZID A 300       0.419 -31.822  10.529  1.00 26.70    -0.353 OA
HETATM   38  C1D ZID A 300       1.318 -30.951  11.147  1.00 24.37     0.259 C 
HETATM   39  C2D ZID A 300       2.402 -31.900  11.694  1.00 23.83     0.198 C 
HETATM   40  C3D ZID A 300       2.636 -32.832  10.534  1.00 24.97     0.182 C 
BRANCH  38  41
HETATM   41  N1N ZID A 300       0.842 -30.173  12.266  1.00 25.28    -0.336 N 
HETATM   42  C2N ZID A 300       0.418 -28.894  12.087  1.00 22.44     0.111 A 
HETATM   43  C3N ZID A 300      -0.089 -28.229  13.138  1.00 25.89     0.056 A 
HETATM   44  C4N ZID A 300      -0.142 -28.950  14.347  1.00 26.60    -0.007 A 
HETATM   45  C5N ZID A 300       0.198 -30.271  14.474  1.00 27.45     0.028 A 
HETATM   46  C6N ZID A 300       0.720 -30.854  13.385  1.00 24.23     0.094 A 
BRANCH  43  47
HETATM   47  C7N ZID A 300      -0.453 -26.742  13.021  1.00 28.02     0.251 C 
HETATM   48  O7N ZID A 300      -1.489 -26.372  12.437  1.00 26.84    -0.268 OA
HETATM   49  N7N ZID A 300       0.467 -25.832  13.284  1.00 23.44    -0.366 N 
ATOM     50 2H7N ZID A 300       1.315 -26.135  13.763  1.00  0.00     0.159 HD
ATOM     51 1H7N ZID A 300       0.225 -24.844  13.206  1.00  0.00     0.159 HD
ENDBRANCH  43  47
BRANCH  44  52
HETATM   52  C7Z ZID A 300      -1.020 -28.370  15.213  1.00 27.75     0.185 C 
BRANCH  52  53
HETATM   53  O7Z ZID A 300      -1.077 -29.729  15.921  1.00 23.71    -0.386 OA
ATOM     54  H7Z ZID A 300      -0.189 -29.552  16.209  1.00  0.00     0.210 HD
ENDBRANCH  52  53
BRANCH  52  55
HETATM   55  C4Z ZID A 300      -0.820 -27.702  16.511  1.00 23.40    -0.023 A 
HETATM   56  C3Z ZID A 300      -0.261 -26.450  16.603  1.00 23.67     0.027 A 
HETATM   57  C2Z ZID A 300      -0.269 -25.840  17.849  1.00 22.98     0.088 A 
HETATM   58  N1Z ZID A 300      -0.836 -26.424  18.935  1.00 25.57    -0.375 N 
HETATM   59  C6Z ZID A 300      -1.460 -27.621  18.860  1.00 26.04     0.088 A 
ATOM     60  H1Z ZID A 300      -0.790 -25.945  19.835  1.00  0.00     0.164 HD
HETATM   61  C5Z ZID A 300      -1.479 -28.265  17.643  1.00 24.83     0.027 A 
ENDBRANCH  52  55
ENDBRANCH  44  52
ENDBRANCH  38  41
BRANCH  39  62
HETATM   62  O2D ZID A 300       3.666 -31.315  12.136  1.00 23.60    -0.388 OA
ATOM     63  H2D ZID A 300       3.866 -30.538  11.627  1.00  0.00     0.210 HD
ENDBRANCH  39  62
BRANCH  40  64
HETATM   64  O3D ZID A 300       3.527 -32.139   9.607  1.00 26.13    -0.390 OA
ATOM     65  H3D ZID A 300       4.423 -32.430   9.733  1.00  0.00     0.210 HD
ENDBRANCH  40  64
ENDBRANCH  35  36
ENDBRANCH  34  35
ENDBRANCH   1  34
TORSDOF 19
ENDMDL
MODEL 2
REMARK VINA RESULT:     -10.1      3.421      5.642
REMARK  19 active torsions:
REMARK  status: ('A' for Active; 'I' for Inactive)
REMARK    1  A    between atoms: PA_1  and  O5B_4 
REMARK    2  A    between atoms: PA_1  and  O3_30 
REMARK    3  A    between atoms: O5B_4  and  C5B_5 
REMARK    4  A    between atoms: C5B_5  and  C4B_6 
REMARK    5  A    between atoms: C3B_8  and  O3B_9 
REMARK    6  A    between atoms: C2B_11  and  O2B_12 
REMARK    7  A    between atoms: C1B_14  and  N9A_15 
REMARK    8  A    between atoms: C6A_20  and  N6A_21 
REMARK    9  A    between atoms: O3_30  and  PN_31 
REMARK   10  A    between atoms: PN_31  and  O5D_34 
REMARK   11  A    between atoms: O5D_34  and  C5D_35 
REMARK   12  A    between atoms: C5D_35  and  C4D_36 
REMARK   13  A    between atoms: C3D_38  and  O3D_39 
REMARK   14  A    between atoms: C2D_41  and  O2D_42 
REMARK   15  A    between atoms: C1D_44  and  N1N_45 
REMARK   16  A    between atoms: C3N_47  and  C7N_48 
REMARK       I    between atoms: C7N_48  and  N7N_50 
REMARK   17  A    between atoms: C4N_53  and  C7Z_56 
REMARK   18  A    between atoms: C7Z_56  and  O7Z_57 
REMARK   19  A    between atoms: C7Z_56  and  C4Z_63 
ROOT
HETATM    1  PN  ZID A 300       5.306 -27.075   8.021  1.00 26.51     0.417 P 
HETATM    2  O1N ZID A 300       6.131 -27.068   6.775  1.00 30.48    -0.624 OA
HETATM    3  O2N ZID A 300       5.193 -25.870   8.910  1.00 28.40    -0.624 OA
ENDROOT
BRANCH   1   4
HETATM    4  O3  ZID A 300       5.782 -28.419   8.819  1.00 30.29    -0.180 OA
BRANCH   4   5
HETATM    5  PA  ZID A 300       5.739 -28.690  10.443  1.00 28.62     0.417 P 
HETATM    6  O1A ZID A 300       6.856 -27.825  10.970  1.00 28.37    -0.624 OA
HETATM    7  O2A ZID A 300       4.340 -28.625  10.972  1.00 30.19    -0.624 OA
BRANCH   5   8
HETATM    8  O5B ZID A 300       6.112 -30.236  10.527  1.00 29.52    -0.287 OA
BRANCH   8   9
HETATM    9  C5B ZID A 300       7.447 -30.705  10.540  1.00 27.76     0.216 C 
BRANCH   9  10
HETATM   10  C4B ZID A 300       7.434 -31.688  11.689  1.00 27.48     0.180 C 
HETATM   11  O4B ZID A 300       6.193 -31.574  12.373  1.00 27.81    -0.353 OA
HETATM   12  C1B ZID A 300       5.908 -32.857  12.858  1.00 28.20     0.262 C 
HETATM   13  C2B ZID A 300       6.249 -33.777  11.678  1.00 28.50     0.198 C 
HETATM   14  C3B ZID A 300       7.540 -33.153  11.205  1.00 25.42     0.182 C 
BRANCH  12  15
HETATM   15  N9A ZID A 300       4.532 -33.090  13.291  1.00 26.08    -0.297 N 
HETATM   16  C8A ZID A 300       4.146 -33.853  14.326  1.00 24.53     0.188 A 
HETATM   17  N7A ZID A 300       2.832 -33.725  14.447  1.00 23.35    -0.346 N 
HETATM   18  C5A ZID A 300       2.400 -32.828  13.520  1.00 25.38     0.122 A 
ATOM     19  H7A ZID A 300       2.244 -34.217  15.121  1.00  0.00     0.167 HD
HETATM   20  C6A ZID A 300       1.157 -32.306  13.197  1.00 23.71     0.131 A 
HETATM   21  C4A ZID A 300       3.492 -32.420  12.814  1.00 23.66     0.142 A 
HETATM   22  N1A ZID A 300       1.071 -31.451  12.174  1.00 27.06    -0.337 N 
HETATM   23  C2A ZID A 300       2.178 -31.048  11.506  1.00 25.81     0.183 A 
ATOM     24  H1A ZID A 300       0.158 -31.095  11.892  1.00  0.00     0.168 HD
HETATM   25  N3A ZID A 300       3.373 -31.539  11.812  1.00 26.02    -0.336 N 
ATOM     26  H3A ZID A 300       4.197 -31.246  11.286  1.00  0.00     0.168 HD
BRANCH  20  27
HETATM   27  N6A ZID A 300       0.039 -32.664  13.871  1.00 26.06    -0.383 N 
ATOM     28 2H6A ZID A 300       0.112 -33.268  14.689  1.00  0.00     0.157 HD
ATOM     29 1H6A ZID A 300      -0.883 -32.327  13.595  1.00  0.00     0.157 HD
ENDBRANCH  20  27
ENDBRANCH  12  15
BRANCH  13  30
HETATM   30  O2B ZID A 300       6.412 -35.140  12.098  1.00 34.28    -0.388 OA
ATOM     31  H2B ZID A 300       6.051 -35.762  11.477  1.00  0.00     0.210 HD
ENDBRANCH  13  30
BRANCH  14  32
HETATM   32  O3B ZID A 300       8.612 -33.756  11.894  1.00 26.39    -0.390 OA
ATOM     33  H3B ZID A 300       8.337 -33.898  12.792  1.00  0.00     0.210 HD
ENDBRANCH  14  32
ENDBRANCH   9  10
ENDBRANCH   8   9
ENDBRANCH   5   8
ENDBRANCH   4   5
ENDBRANCH   1   4
BRANCH   1  34
HETATM   34  O5D ZID A 300       3.816 -27.524   7.714  1.00 27.38    -0.287 OA
BRANCH  34  35
HETATM   35  C5D ZID A 300       2.677 -26.790   8.151  1.00 26.32     0.216 C 
BRANCH  35  36
HETATM   36  C4D ZID A 300       1.454 -27.711   8.126  1.00 26.54     0.180 C 
HETATM   37  O4D ZID A 300       1.403 -28.311   9.459  1.00 26.70    -0.353 OA
HETATM   38  C1D ZID A 300       0.080 -28.232   9.893  1.00 24.37     0.259 C 
HETATM   39  C2D ZID A 300      -0.401 -26.892   9.303  1.00 23.83     0.198 C 
HETATM   40  C3D ZID A 300       0.128 -26.946   7.895  1.00 24.97     0.182 C 
BRANCH  38  41
HETATM   41  N1N ZID A 300      -0.161 -28.172  11.315  1.00 25.28    -0.336 N 
HETATM   42  C2N ZID A 300      -1.146 -28.918  11.881  1.00 22.44     0.111 A 
HETATM   43  C3N ZID A 300      -1.289 -28.893  13.216  1.00 25.89     0.056 A 
HETATM   44  C4N ZID A 300      -0.369 -28.085  13.912  1.00 26.60    -0.007 A 
HETATM   45  C5N ZID A 300       0.677 -27.423  13.325  1.00 27.45     0.028 A 
HETATM   46  C6N ZID A 300       0.733 -27.477  11.985  1.00 24.23     0.094 A 
BRANCH  43  47
HETATM   47  C7N ZID A 300      -2.469 -29.608  13.890  1.00 28.02     0.251 C 
HETATM   48  O7N ZID A 300      -2.415 -30.819  14.178  1.00 26.84    -0.268 OA
HETATM   49  N7N ZID A 300      -3.652 -29.021  13.907  1.00 23.44    -0.366 N 
ATOM     50 2H7N ZID A 300      -3.696 -28.030  13.671  1.00  0.00     0.159 HD
ATOM     51 1H7N ZID A 300      -4.436 -29.496  14.354  1.00  0.00     0.159 HD
ENDBRANCH  43  47
BRANCH  44  52
HETATM   52  C7Z ZID A 300      -0.321 -28.437  15.228  1.00 27.75     0.185 C 
BRANCH  52  53
HETATM   53  O7Z ZID A 300       1.047 -27.746  15.267  1.00 23.71    -0.386 OA
ATOM     54  H7Z ZID A 300       0.874 -27.583  16.187  1.00  0.00     0.210 HD
ENDBRANCH  52  53
BRANCH  52  55
HETATM   55  C4Z ZID A 300      -0.720 -27.718  16.450  1.00 23.40    -0.023 A 
HETATM   56  C3Z ZID A 300      -1.342 -28.356  17.496  1.00 23.67     0.027 A 
HETATM   57  C2Z ZID A 300      -1.525 -27.631  18.664  1.00 22.98     0.088 A 
HETATM   58  N1Z ZID A 300      -1.080 -26.357  18.801  1.00 25.57    -0.375 N 
HETATM   59  C6Z ZID A 300      -0.398 -25.729  17.818  1.00 26.04     0.088 A 
ATOM     60  H1Z ZID A 300      -1.265 -25.859  19.672  1.00  0.00     0.164 HD
HETATM   61  C5Z ZID A 300      -0.190 -26.408  16.638  1.00 24.83     0.027 A 
ENDBRANCH  52  55
ENDBRANCH  44  52
ENDBRANCH  38  41
BRANCH  39  62
HETATM   62  O2D ZID A 300      -1.838 -26.623   9.294  1.00 23.60    -0.388 OA
ATOM     63  H2D ZID A 300      -2.045 -25.918   9.896  1.00  0.00     0.210 HD
ENDBRANCH  39  62
BRANCH  40  64
HETATM   64  O3D ZID A 300      -0.801 -27.767   7.123  1.00 26.13    -0.390 OA
ATOM     65  H3D ZID A 300      -0.764 -28.670   7.417  1.00  0.00     0.210 HD
ENDBRANCH  40  64
ENDBRANCH  35  36
ENDBRANCH  34  35
ENDBRANCH   1  34
TORSDOF 19
ENDMDL
MODEL 3
REMARK VINA RESULT:     -10.0      3.118      4.705
REMARK  19 active torsions:
REMARK  status: ('A' for Active; 'I' for Inactive)
REMARK    1  A    between atoms: PA_1  and  O5B_4 
REMARK    2  A    between atoms: PA_1  and  O3_30 
REMARK    3  A    between atoms: O5B_4  and  C5B_5 
REMARK    4  A    between atoms: C5B_5  and  C4B_6 
REMARK    5  A    between atoms: C3B_8  and  O3B_9 
REMARK    6  A    between atoms: C2B_11  and  O2B_12 
REMARK    7  A    between atoms: C1B_14  and  N9A_15 
REMARK    8  A    between atoms: C6A_20  and  N6A_21 
REMARK    9  A    between atoms: O3_30  and  PN_31 
REMARK   10  A    between atoms: PN_31  and  O5D_34 
REMARK   11  A    between atoms: O5D_34  and  C5D_35 
REMARK   12  A    between atoms: C5D_35  and  C4D_36 
REMARK   13  A    between atoms: C3D_38  and  O3D_39 
REMARK   14  A    between atoms: C2D_41  and  O2D_42 
REMARK   15  A    between atoms: C1D_44  and  N1N_45 
REMARK   16  A    between atoms: C3N_47  and  C7N_48 
REMARK       I    between atoms: C7N_48  and  N7N_50 
REMARK   17  A    between atoms: C4N_53  and  C7Z_56 
REMARK   18  A    between atoms: C7Z_56  and  O7Z_57 
REMARK   19  A    between atoms: C7Z_56  and  C4Z_63 
ROOT
HETATM    1  PN  ZID A 300       2.044 -32.091  10.774  1.00 26.51     0.417 P 
HETATM    2  O1N ZID A 300       3.266 -31.560  10.097  1.00 30.48    -0.624 OA
HETATM    3  O2N ZID A 300       1.775 -31.857  12.233  1.00 28.40    -0.624 OA
ENDROOT
BRANCH   1   4
HETATM    4  O3  ZID A 300       1.999 -33.670  10.359  1.00 30.29    -0.180 OA
BRANCH   4   5
HETATM    5  PA  ZID A 300       1.565 -34.945  11.307  1.00 28.62     0.417 P 
HETATM    6  O1A ZID A 300       0.178 -34.578  11.771  1.00 28.37    -0.624 OA
HETATM    7  O2A ZID A 300       1.884 -36.251  10.647  1.00 30.19    -0.624 OA
BRANCH   5   8
HETATM    8  O5B ZID A 300       2.621 -34.845  12.494  1.00 29.52    -0.287 OA
BRANCH   8   9
HETATM    9  C5B ZID A 300       2.269 -35.015  13.854  1.00 27.76     0.216 C 
BRANCH   9  10
HETATM   10  C4B ZID A 300       3.610 -35.244  14.511  1.00 27.48     0.180 C 
HETATM   11  O4B ZID A 300       4.448 -35.951  13.605  1.00 27.81    -0.353 OA
HETATM   12  C1B ZID A 300       5.751 -35.509  13.871  1.00 28.20     0.262 C 
HETATM   13  C2B ZID A 300       5.598 -33.989  14.019  1.00 28.50     0.198 C 
HETATM   14  C3B ZID A 300       4.333 -33.917  14.840  1.00 25.42     0.182 C 
BRANCH  12  15
HETATM   15  N9A ZID A 300       6.753 -35.813  12.852  1.00 26.08    -0.297 N 
HETATM   16  C8A ZID A 300       8.043 -36.110  13.074  1.00 24.53     0.188 A 
HETATM   17  N7A ZID A 300       8.588 -36.417  11.905  1.00 23.35    -0.346 N 
HETATM   18  C5A ZID A 300       7.617 -36.372  10.953  1.00 25.38     0.122 A 
ATOM     19  H7A ZID A 300       9.569 -36.648  11.746  1.00  0.00     0.167 HD
HETATM   20  C6A ZID A 300       7.603 -36.605   9.586  1.00 23.71     0.131 A 
HETATM   21  C4A ZID A 300       6.459 -36.010  11.574  1.00 23.66     0.142 A 
HETATM   22  N1A ZID A 300       6.458 -36.426   8.921  1.00 27.06    -0.337 N 
HETATM   23  C2A ZID A 300       5.319 -36.088   9.571  1.00 25.81     0.183 A 
ATOM     24  H1A ZID A 300       6.441 -36.546   7.908  1.00  0.00     0.168 HD
HETATM   25  N3A ZID A 300       5.322 -35.867  10.880  1.00 26.02    -0.336 N 
ATOM     26  H3A ZID A 300       4.463 -35.590  11.354  1.00  0.00     0.168 HD
BRANCH  20  27
HETATM   27  N6A ZID A 300       8.718 -36.978   8.917  1.00 26.06    -0.383 N 
ATOM     28 2H6A ZID A 300       8.636 -37.450   8.017  1.00  0.00     0.157 HD
ATOM     29 1H6A ZID A 300       9.651 -36.782   9.280  1.00  0.00     0.157 HD
ENDBRANCH  20  27
ENDBRANCH  12  15
BRANCH  13  30
HETATM   30  O2B ZID A 300       6.728 -33.405  14.685  1.00 34.28    -0.388 OA
ATOM     31  H2B ZID A 300       7.239 -34.042  15.171  1.00  0.00     0.210 HD
ENDBRANCH  13  30
BRANCH  14  32
HETATM   32  O3B ZID A 300       4.680 -33.944  16.207  1.00 26.39    -0.390 OA
ATOM     33  H3B ZID A 300       4.653 -33.051  16.530  1.00  0.00     0.210 HD
ENDBRANCH  14  32
ENDBRANCH   9  10
ENDBRANCH   8   9
ENDBRANCH   5   8
ENDBRANCH   4   5
ENDBRANCH   1   4
BRANCH   1  34
HETATM   34  O5D ZID A 300       0.729 -31.632  10.015  1.00 27.38    -0.287 OA
BRANCH  34  35
HETATM   35  C5D ZID A 300       0.707 -31.293   8.632  1.00 26.32     0.216 C 
BRANCH  35  36
HETATM   36  C4D ZID A 300       0.263 -29.835   8.485  1.00 26.54     0.180 C 
HETATM   37  O4D ZID A 300      -0.468 -29.535   9.715  1.00 26.70    -0.353 OA
HETATM   38  C1D ZID A 300      -0.013 -28.298  10.171  1.00 24.37     0.259 C 
HETATM   39  C2D ZID A 300       1.480 -28.315   9.791  1.00 23.83     0.198 C 
HETATM   40  C3D ZID A 300       1.453 -28.851   8.384  1.00 24.97     0.182 C 
BRANCH  38  41
HETATM   41  N1N ZID A 300      -0.080 -28.035  11.589  1.00 25.28    -0.336 N 
HETATM   42  C2N ZID A 300      -0.095 -29.059  12.481  1.00 22.44     0.111 A 
HETATM   43  C3N ZID A 300      -0.080 -28.773  13.793  1.00 25.89     0.056 A 
HETATM   44  C4N ZID A 300      -0.035 -27.403  14.117  1.00 26.60    -0.007 A 
HETATM   45  C5N ZID A 300       0.082 -26.395  13.197  1.00 27.45     0.028 A 
HETATM   46  C6N ZID A 300       0.033 -26.763  11.908  1.00 24.23     0.094 A 
BRANCH  43  47
HETATM   47  C7N ZID A 300      -0.236 -29.886  14.839  1.00 28.02     0.251 C 
HETATM   48  O7N ZID A 300       0.706 -30.654  15.114  1.00 26.84    -0.268 OA
HETATM   49  N7N ZID A 300      -1.446 -30.224  15.244  1.00 23.44    -0.366 N 
ATOM     50 2H7N ZID A 300      -2.217 -29.596  15.020  1.00  0.00     0.159 HD
ATOM     51 1H7N ZID A 300      -1.549 -30.964  15.939  1.00  0.00     0.159 HD
ENDBRANCH  43  47
BRANCH  44  52
HETATM   52  C7Z ZID A 300       0.387 -27.227  15.401  1.00 27.75     0.185 C 
BRANCH  52  53
HETATM   53  O7Z ZID A 300       0.820 -25.821  14.969  1.00 23.71    -0.386 OA
ATOM     54  H7Z ZID A 300      -0.098 -25.657  14.785  1.00  0.00     0.210 HD
ENDBRANCH  52  53
BRANCH  52  55
HETATM   55  C4Z ZID A 300      -0.282 -26.658  16.584  1.00 23.40    -0.023 A 
HETATM   56  C3Z ZID A 300      -0.882 -27.454  17.530  1.00 23.67     0.027 A 
HETATM   57  C2Z ZID A 300      -1.336 -26.835  18.685  1.00 22.98     0.088 A 
HETATM   58  N1Z ZID A 300      -1.168 -25.507  18.908  1.00 25.57    -0.375 N 
HETATM   59  C6Z ZID A 300      -0.515 -24.713  18.031  1.00 26.04     0.088 A 
ATOM     60  H1Z ZID A 300      -1.546 -25.096  19.762  1.00  0.00     0.164 HD
HETATM   61  C5Z ZID A 300      -0.045 -25.281  16.868  1.00 24.83     0.027 A 
ENDBRANCH  52  55
ENDBRANCH  44  52
ENDBRANCH  38  41
BRANCH  39  62
HETATM   62  O2D ZID A 300       2.214 -27.052   9.837  1.00 23.60    -0.388 OA
ATOM     63  H2D ZID A 300       1.619 -26.320   9.726  1.00  0.00     0.210 HD
ENDBRANCH  39  62
BRANCH  40  64
HETATM   64  O3D ZID A 300       1.111 -27.732   7.510  1.00 26.13    -0.390 OA
ATOM     65  H3D ZID A 300       1.487 -27.862   6.647  1.00  0.00     0.210 HD
ENDBRANCH  40  64
ENDBRANCH  35  36
ENDBRANCH  34  35
ENDBRANCH   1  34
TORSDOF 19
ENDMDL
MODEL 4
REMARK VINA RESULT:      -9.8      2.119      3.106
REMARK  19 active torsions:
REMARK  status: ('A' for Active; 'I' for Inactive)
REMARK    1  A    between atoms: PA_1  and  O5B_4 
REMARK    2  A    between atoms: PA_1  and  O3_30 
REMARK    3  A    between atoms: O5B_4  and  C5B_5 
REMARK    4  A    between atoms: C5B_5  and  C4B_6 
REMARK    5  A    between atoms: C3B_8  and  O3B_9 
REMARK    6  A    between atoms: C2B_11  and  O2B_12 
REMARK    7  A    between atoms: C1B_14  and  N9A_15 
REMARK    8  A    between atoms: C6A_20  and  N6A_21 
REMARK    9  A    between atoms: O3_30  and  PN_31 
REMARK   10  A    between atoms: PN_31  and  O5D_34 
REMARK   11  A    between atoms: O5D_34  and  C5D_35 
REMARK   12  A    between atoms: C5D_35  and  C4D_36 
REMARK   13  A    between atoms: C3D_38  and  O3D_39 
REMARK   14  A    between atoms: C2D_41  and  O2D_42 
REMARK   15  A    between atoms: C1D_44  and  N1N_45 
REMARK   16  A    between atoms: C3N_47  and  C7N_48 
REMARK       I    between atoms: C7N_48  and  N7N_50 
REMARK   17  A    between atoms: C4N_53  and  C7Z_56 
REMARK   18  A    between atoms: C7Z_56  and  O7Z_57 
REMARK   19  A    between atoms: C7Z_56  and  C4Z_63 
ROOT
HETATM    1  PN  ZID A 300       0.782 -32.906  10.429  1.00 26.51     0.417 P 
HETATM    2  O1N ZID A 300       0.579 -32.558  11.869  1.00 30.48    -0.624 OA
HETATM    3  O2N ZID A 300      -0.197 -33.753   9.668  1.00 28.40    -0.624 OA
ENDROOT
BRANCH   1   4
HETATM    4  O3  ZID A 300       2.313 -33.470  10.356  1.00 30.29    -0.180 OA
BRANCH   4   5
HETATM    5  PA  ZID A 300       2.911 -34.841  11.043  1.00 28.62     0.417 P 
HETATM    6  O1A ZID A 300       3.315 -34.391  12.425  1.00 28.37    -0.624 OA
HETATM    7  O2A ZID A 300       2.013 -36.013  10.799  1.00 30.19    -0.624 OA
BRANCH   5   8
HETATM    8  O5B ZID A 300       4.185 -35.135  10.133  1.00 29.52    -0.287 OA
BRANCH   8   9
HETATM    9  C5B ZID A 300       4.887 -36.364  10.165  1.00 27.76     0.216 C 
BRANCH   9  10
HETATM   10  C4B ZID A 300       6.314 -35.916  10.382  1.00 27.48     0.180 C 
HETATM   11  O4B ZID A 300       6.432 -34.556   9.983  1.00 27.81    -0.353 OA
HETATM   12  C1B ZID A 300       7.406 -33.998  10.821  1.00 28.20     0.262 C 
HETATM   13  C2B ZID A 300       7.045 -34.541  12.211  1.00 28.50     0.198 C 
HETATM   14  C3B ZID A 300       6.725 -35.977  11.872  1.00 25.42     0.182 C 
BRANCH  12  15
HETATM   15  N9A ZID A 300       7.464 -32.539  10.856  1.00 26.08    -0.297 N 
HETATM   16  C8A ZID A 300       8.553 -31.784  10.639  1.00 24.53     0.188 A 
HETATM   17  N7A ZID A 300       8.170 -30.515  10.661  1.00 23.35    -0.346 N 
HETATM   18  C5A ZID A 300       6.820 -30.476  10.832  1.00 25.38     0.122 A 
ATOM     19  H7A ZID A 300       8.783 -29.705  10.567  1.00  0.00     0.167 HD
HETATM   20  C6A ZID A 300       5.894 -29.449  10.919  1.00 23.71     0.131 A 
HETATM   21  C4A ZID A 300       6.389 -31.766  10.931  1.00 23.66     0.142 A 
HETATM   22  N1A ZID A 300       4.613 -29.762  11.137  1.00 27.06    -0.337 N 
HETATM   23  C2A ZID A 300       4.213 -31.053  11.208  1.00 25.81     0.183 A 
ATOM     24  H1A ZID A 300       3.927 -29.016  11.252  1.00  0.00     0.168 HD
HETATM   25  N3A ZID A 300       5.092 -32.044  11.121  1.00 26.02    -0.336 N 
ATOM     26  H3A ZID A 300       4.782 -33.013  11.200  1.00  0.00     0.168 HD
BRANCH  20  27
HETATM   27  N6A ZID A 300       6.262 -28.151  10.816  1.00 26.06    -0.383 N 
ATOM     28 2H6A ZID A 300       5.677 -27.498  10.295  1.00  0.00     0.157 HD
ATOM     29 1H6A ZID A 300       7.105 -27.795  11.267  1.00  0.00     0.157 HD
ENDBRANCH  20  27
ENDBRANCH  12  15
BRANCH  13  30
HETATM   30  O2B ZID A 300       8.141 -34.418  13.130  1.00 34.28    -0.388 OA
ATOM     31  H2B ZID A 300       8.237 -33.537  13.473  1.00  0.00     0.210 HD
ENDBRANCH  13  30
BRANCH  14  32
HETATM   32  O3B ZID A 300       7.909 -36.737  11.961  1.00 26.39    -0.390 OA
ATOM     33  H3B ZID A 300       8.529 -36.383  11.334  1.00  0.00     0.210 HD
ENDBRANCH  14  32
ENDBRANCH   9  10
ENDBRANCH   8   9
ENDBRANCH   5   8
ENDBRANCH   4   5
ENDBRANCH   1   4
BRANCH   1  34
HETATM   34  O5D ZID A 300       0.992 -31.600   9.553  1.00 27.38    -0.287 OA
BRANCH  34  35
HETATM   35  C5D ZID A 300       0.133 -31.238   8.477  1.00 26.32     0.216 C 
BRANCH  35  36
HETATM   36  C4D ZID A 300       0.070 -29.711   8.383  1.00 26.54     0.180 C 
HETATM   37  O4D ZID A 300      -0.643 -29.286   9.586  1.00 26.70    -0.353 OA
HETATM   38  C1D ZID A 300       0.071 -28.218  10.129  1.00 24.37     0.259 C 
HETATM   39  C2D ZID A 300       1.536 -28.589   9.828  1.00 23.83     0.198 C 
HETATM   40  C3D ZID A 300       1.469 -29.049   8.396  1.00 24.97     0.182 C 
BRANCH  38  41
HETATM   41  N1N ZID A 300      -0.020 -28.000  11.554  1.00 25.28    -0.336 N 
HETATM   42  C2N ZID A 300      -0.047 -29.052  12.413  1.00 22.44     0.111 A 
HETATM   43  C3N ZID A 300      -0.055 -28.807  13.733  1.00 25.89     0.056 A 
HETATM   44  C4N ZID A 300      -0.019 -27.448  14.101  1.00 26.60    -0.007 A 
HETATM   45  C5N ZID A 300       0.111 -26.411  13.215  1.00 27.45     0.028 A 
HETATM   46  C6N ZID A 300       0.084 -26.739  11.914  1.00 24.23     0.094 A 
BRANCH  43  47
HETATM   47  C7N ZID A 300      -0.224 -29.954  14.741  1.00 28.02     0.251 C 
HETATM   48  O7N ZID A 300       0.721 -30.714  15.022  1.00 26.84    -0.268 OA
HETATM   49  N7N ZID A 300      -1.441 -30.321  15.098  1.00 23.44    -0.366 N 
ATOM     50 2H7N ZID A 300      -2.215 -29.698  14.868  1.00  0.00     0.159 HD
ATOM     51 1H7N ZID A 300      -1.553 -31.083  15.768  1.00  0.00     0.159 HD
ENDBRANCH  43  47
BRANCH  44  52
HETATM   52  C7Z ZID A 300       0.381 -27.312  15.397  1.00 27.75     0.185 C 
BRANCH  52  53
HETATM   53  O7Z ZID A 300       0.826 -25.895  15.014  1.00 23.71    -0.386 OA
ATOM     54  H7Z ZID A 300       0.466 -25.618  15.848  1.00  0.00     0.210 HD
ENDBRANCH  52  53
BRANCH  52  55
HETATM   55  C4Z ZID A 300      -0.306 -26.775  16.584  1.00 23.40    -0.023 A 
HETATM   56  C3Z ZID A 300      -0.928 -27.596  17.494  1.00 23.67     0.027 A 
HETATM   57  C2Z ZID A 300      -1.400 -27.010  18.659  1.00 22.98     0.088 A 
HETATM   58  N1Z ZID A 300      -1.228 -25.691  18.926  1.00 25.57    -0.375 N 
HETATM   59  C6Z ZID A 300      -0.555 -24.874  18.086  1.00 26.04     0.088 A 
ATOM     60  H1Z ZID A 300      -1.620 -25.304  19.785  1.00  0.00     0.164 HD
HETATM   61  C5Z ZID A 300      -0.066 -25.409  16.915  1.00 24.83     0.027 A 
ENDBRANCH  52  55
ENDBRANCH  44  52
ENDBRANCH  38  41
BRANCH  39  62
HETATM   62  O2D ZID A 300       2.552 -27.549   9.979  1.00 23.60    -0.388 OA
ATOM     63  H2D ZID A 300       2.541 -27.204  10.864  1.00  0.00     0.210 HD
ENDBRANCH  39  62
BRANCH  40  64
HETATM   64  O3D ZID A 300       1.467 -27.848   7.565  1.00 26.13    -0.390 OA
ATOM     65  H3D ZID A 300       0.894 -27.189   7.940  1.00  0.00     0.210 HD
ENDBRANCH  40  64
ENDBRANCH  35  36
ENDBRANCH  34  35
ENDBRANCH   1  34
TORSDOF 19
ENDMDL
MODEL 5
REMARK VINA RESULT:      -9.7      3.221      5.583
REMARK  19 active torsions:
REMARK  status: ('A' for Active; 'I' for Inactive)
REMARK    1  A    between atoms: PA_1  and  O5B_4 
REMARK    2  A    between atoms: PA_1  and  O3_30 
REMARK    3  A    between atoms: O5B_4  and  C5B_5 
REMARK    4  A    between atoms: C5B_5  and  C4B_6 
REMARK    5  A    between atoms: C3B_8  and  O3B_9 
REMARK    6  A    between atoms: C2B_11  and  O2B_12 
REMARK    7  A    between atoms: C1B_14  and  N9A_15 
REMARK    8  A    between atoms: C6A_20  and  N6A_21 
REMARK    9  A    between atoms: O3_30  and  PN_31 
REMARK   10  A    between atoms: PN_31  and  O5D_34 
REMARK   11  A    between atoms: O5D_34  and  C5D_35 
REMARK   12  A    between atoms: C5D_35  and  C4D_36 
REMARK   13  A    between atoms: C3D_38  and  O3D_39 
REMARK   14  A    between atoms: C2D_41  and  O2D_42 
REMARK   15  A    between atoms: C1D_44  and  N1N_45 
REMARK   16  A    between atoms: C3N_47  and  C7N_48 
REMARK       I    between atoms: C7N_48  and  N7N_50 
REMARK   17  A    between atoms: C4N_53  and  C7Z_56 
REMARK   18  A    between atoms: C7Z_56  and  O7Z_57 
REMARK   19  A    between atoms: C7Z_56  and  C4Z_63 
ROOT
HETATM    1  PN  ZID A 300       5.465 -29.745  10.378  1.00 26.51     0.417 P 
HETATM    2  O1N ZID A 300       5.903 -30.329   9.075  1.00 30.48    -0.624 OA
HETATM    3  O2N ZID A 300       6.406 -28.987  11.271  1.00 28.40    -0.624 OA
ENDROOT
BRANCH   1   4
HETATM    4  O3  ZID A 300       4.705 -30.973  11.143  1.00 30.29    -0.180 OA
BRANCH   4   5
HETATM    5  PA  ZID A 300       4.100 -32.350  10.475  1.00 28.62     0.417 P 
HETATM    6  O1A ZID A 300       3.234 -31.841   9.351  1.00 28.37    -0.624 OA
HETATM    7  O2A ZID A 300       5.170 -33.378  10.277  1.00 30.19    -0.624 OA
BRANCH   5   8
HETATM    8  O5B ZID A 300       3.221 -32.934  11.668  1.00 29.52    -0.287 OA
BRANCH   8   9
HETATM    9  C5B ZID A 300       2.697 -34.248  11.666  1.00 27.76     0.216 C 
BRANCH   9  10
HETATM   10  C4B ZID A 300       3.250 -34.820  12.951  1.00 27.48     0.180 C 
HETATM   11  O4B ZID A 300       4.211 -35.818  12.631  1.00 27.81    -0.353 OA
HETATM   12  C1B ZID A 300       5.161 -35.773  13.659  1.00 28.20     0.262 C 
HETATM   13  C2B ZID A 300       5.401 -34.272  13.868  1.00 28.50     0.198 C 
HETATM   14  C3B ZID A 300       3.985 -33.753  13.796  1.00 25.42     0.182 C 
BRANCH  12  15
HETATM   15  N9A ZID A 300       6.430 -36.447  13.392  1.00 26.08    -0.297 N 
HETATM   16  C8A ZID A 300       7.145 -37.166  14.272  1.00 24.53     0.188 A 
HETATM   17  N7A ZID A 300       8.171 -37.691  13.617  1.00 23.35    -0.346 N 
HETATM   18  C5A ZID A 300       8.064 -37.349  12.304  1.00 25.38     0.122 A 
ATOM     19  H7A ZID A 300       8.915 -38.256  14.028  1.00  0.00     0.167 HD
HETATM   20  C6A ZID A 300       8.827 -37.617  11.178  1.00 23.71     0.131 A 
HETATM   21  C4A ZID A 300       6.945 -36.581  12.178  1.00 23.66     0.142 A 
HETATM   22  N1A ZID A 300       8.456 -37.077  10.013  1.00 27.06    -0.337 N 
HETATM   23  C2A ZID A 300       7.326 -36.338   9.916  1.00 25.81     0.183 A 
ATOM     24  H1A ZID A 300       9.032 -37.225   9.185  1.00  0.00     0.168 HD
HETATM   25  N3A ZID A 300       6.587 -36.080  10.988  1.00 26.02    -0.336 N 
ATOM     26  H3A ZID A 300       5.750 -35.501  10.906  1.00  0.00     0.168 HD
BRANCH  20  27
HETATM   27  N6A ZID A 300       9.941 -38.383  11.241  1.00 26.06    -0.383 N 
ATOM     28 2H6A ZID A 300       9.910 -39.350  10.918  1.00  0.00     0.157 HD
ATOM     29 1H6A ZID A 300      10.826 -38.012  11.585  1.00  0.00     0.157 HD
ENDBRANCH  20  27
ENDBRANCH  12  15
BRANCH  13  30
HETATM   30  O2B ZID A 300       6.026 -34.006  15.134  1.00 34.28    -0.388 OA
ATOM     31  H2B ZID A 300       6.471 -34.765  15.491  1.00  0.00     0.210 HD
ENDBRANCH  13  30
BRANCH  14  32
HETATM   32  O3B ZID A 300       3.429 -33.773  15.092  1.00 26.39    -0.390 OA
ATOM     33  H3B ZID A 300       2.528 -33.478  15.026  1.00  0.00     0.210 HD
ENDBRANCH  14  32
ENDBRANCH   9  10
ENDBRANCH   8   9
ENDBRANCH   5   8
ENDBRANCH   4   5
ENDBRANCH   1   4
BRANCH   1  34
HETATM   34  O5D ZID A 300       4.204 -28.802  10.183  1.00 27.38    -0.287 OA
BRANCH  34  35
HETATM   35  C5D ZID A 300       3.903 -28.150   8.953  1.00 26.32     0.216 C 
BRANCH  35  36
HETATM   36  C4D ZID A 300       2.413 -28.328   8.649  1.00 26.54     0.180 C 
HETATM   37  O4D ZID A 300       1.847 -28.923   9.858  1.00 26.70    -0.353 OA
HETATM   38  C1D ZID A 300       0.674 -28.225  10.147  1.00 24.37     0.259 C 
HETATM   39  C2D ZID A 300       1.013 -26.783   9.722  1.00 23.83     0.198 C 
HETATM   40  C3D ZID A 300       1.687 -26.986   8.391  1.00 24.97     0.182 C 
BRANCH  38  41
HETATM   41  N1N ZID A 300       0.248 -28.164  11.525  1.00 25.28    -0.336 N 
HETATM   42  C2N ZID A 300      -0.788 -28.926  11.963  1.00 22.44     0.111 A 
HETATM   43  C3N ZID A 300      -1.105 -28.898  13.267  1.00 25.89     0.056 A 
HETATM   44  C4N ZID A 300      -0.300 -28.069  14.072  1.00 26.60    -0.007 A 
HETATM   45  C5N ZID A 300       0.802 -27.389  13.622  1.00 27.45     0.028 A 
HETATM   46  C6N ZID A 300       1.034 -27.448  12.302  1.00 24.23     0.094 A 
BRANCH  43  47
HETATM   47  C7N ZID A 300      -2.349 -29.633  13.786  1.00 28.02     0.251 C 
HETATM   48  O7N ZID A 300      -2.355 -30.868  13.942  1.00 26.84    -0.268 OA
HETATM   49  N7N ZID A 300      -3.510 -29.003  13.798  1.00 23.44    -0.366 N 
ATOM     50 2H7N ZID A 300      -3.505 -27.991  13.671  1.00  0.00     0.159 HD
ATOM     51 1H7N ZID A 300      -4.337 -29.491  14.142  1.00  0.00     0.159 HD
ENDBRANCH  43  47
BRANCH  44  52
HETATM   52  C7Z ZID A 300      -0.417 -28.413  15.386  1.00 27.75     0.185 C 
BRANCH  52  53
HETATM   53  O7Z ZID A 300       1.049 -27.990  15.533  1.00 23.71    -0.386 OA
ATOM     54  H7Z ZID A 300       0.958 -28.203  16.454  1.00  0.00     0.210 HD
ENDBRANCH  52  53
BRANCH  52  55
HETATM   55  C4Z ZID A 300      -0.766 -27.623  16.579  1.00 23.40    -0.023 A 
HETATM   56  C3Z ZID A 300      -1.325 -28.202  17.693  1.00 23.67     0.027 A 
HETATM   57  C2Z ZID A 300      -1.462 -27.407  18.821  1.00 22.98     0.088 A 
HETATM   58  N1Z ZID A 300      -1.030 -26.121  18.855  1.00 25.57    -0.375 N 
HETATM   59  C6Z ZID A 300      -0.407 -25.548  17.802  1.00 26.04     0.088 A 
ATOM     60  H1Z ZID A 300      -1.179 -25.571  19.702  1.00  0.00     0.164 HD
HETATM   61  C5Z ZID A 300      -0.248 -26.297  16.657  1.00 24.83     0.027 A 
ENDBRANCH  52  55
ENDBRANCH  44  52
ENDBRANCH  38  41
BRANCH  39  62
HETATM   62  O2D ZID A 300      -0.087 -25.830   9.592  1.00 23.60    -0.388 OA
ATOM     63  H2D ZID A 300       0.192 -24.965   9.867  1.00  0.00     0.210 HD
ENDBRANCH  39  62
BRANCH  40  64
HETATM   64  O3D ZID A 300       0.627 -27.167   7.401  1.00 26.13    -0.390 OA
ATOM     65  H3D ZID A 300       0.377 -28.082   7.352  1.00  0.00     0.210 HD
ENDBRANCH  40  64
ENDBRANCH  35  36
ENDBRANCH  34  35
ENDBRANCH   1  34
TORSDOF 19
ENDMDL
MODEL 6
REMARK VINA RESULT:      -9.7      1.407      2.237
REMARK  19 active torsions:
REMARK  status: ('A' for Active; 'I' for Inactive)
REMARK    1  A    between atoms: PA_1  and  O5B_4 
REMARK    2  A    between atoms: PA_1  and  O3_30 
REMARK    3  A    between atoms: O5B_4  and  C5B_5 
REMARK    4  A    between atoms: C5B_5  and  C4B_6 
REMARK    5  A    between atoms: C3B_8  and  O3B_9 
REMARK    6  A    between atoms: C2B_11  and  O2B_12 
REMARK    7  A    between atoms: C1B_14  and  N9A_15 
REMARK    8  A    between atoms: C6A_20  and  N6A_21 
REMARK    9  A    between atoms: O3_30  and  PN_31 
REMARK   10  A    between atoms: PN_31  and  O5D_34 
REMARK   11  A    between atoms: O5D_34  and  C5D_35 
REMARK   12  A    between atoms: C5D_35  and  C4D_36 
REMARK   13  A    between atoms: C3D_38  and  O3D_39 
REMARK   14  A    between atoms: C2D_41  and  O2D_42 
REMARK   15  A    between atoms: C1D_44  and  N1N_45 
REMARK   16  A    between atoms: C3N_47  and  C7N_48 
REMARK       I    between atoms: C7N_48  and  N7N_50 
REMARK   17  A    between atoms: C4N_53  and  C7Z_56 
REMARK   18  A    between atoms: C7Z_56  and  O7Z_57 
REMARK   19  A    between atoms: C7Z_56  and  C4Z_63 
ROOT
HETATM    1  PN  ZID A 300       3.535 -35.645  13.772  1.00 26.51     0.417 P 
HETATM    2  O1N ZID A 300       3.298 -34.355  14.488  1.00 30.48    -0.624 OA
HETATM    3  O2N ZID A 300       3.024 -36.956  14.298  1.00 28.40    -0.624 OA
ENDROOT
BRANCH   1   4
HETATM    4  O3  ZID A 300       5.140 -35.658  13.468  1.00 30.29    -0.180 OA
BRANCH   4   5
HETATM    5  PA  ZID A 300       6.255 -34.531  13.914  1.00 28.62     0.417 P 
HETATM    6  O1A ZID A 300       5.986 -34.338  15.386  1.00 28.37    -0.624 OA
HETATM    7  O2A ZID A 300       7.610 -34.857  13.369  1.00 30.19    -0.624 OA
BRANCH   5   8
HETATM    8  O5B ZID A 300       5.794 -33.263  13.068  1.00 29.52    -0.287 OA
BRANCH   8   9
HETATM    9  C5B ZID A 300       6.660 -32.187  12.761  1.00 27.76     0.216 C 
BRANCH   9  10
HETATM   10  C4B ZID A 300       6.930 -32.397  11.289  1.00 27.48     0.180 C 
HETATM   11  O4B ZID A 300       6.179 -31.445  10.546  1.00 27.81    -0.353 OA
HETATM   12  C1B ZID A 300       6.946 -31.161   9.409  1.00 28.20     0.262 C 
HETATM   13  C2B ZID A 300       8.371 -31.012   9.959  1.00 28.50     0.198 C 
HETATM   14  C3B ZID A 300       8.416 -32.167  10.929  1.00 25.42     0.182 C 
BRANCH  12  15
HETATM   15  N9A ZID A 300       6.572 -29.961   8.664  1.00 26.08    -0.297 N 
HETATM   16  C8A ZID A 300       6.931 -29.667   7.404  1.00 24.53     0.188 A 
HETATM   17  N7A ZID A 300       6.309 -28.548   7.062  1.00 23.35    -0.346 N 
HETATM   18  C5A ZID A 300       5.505 -28.171   8.094  1.00 25.38     0.122 A 
ATOM     19  H7A ZID A 300       6.414 -28.052   6.177  1.00  0.00     0.167 HD
HETATM   20  C6A ZID A 300       4.633 -27.112   8.292  1.00 23.71     0.131 A 
HETATM   21  C4A ZID A 300       5.668 -29.089   9.088  1.00 23.66     0.142 A 
HETATM   22  N1A ZID A 300       4.012 -27.010   9.472  1.00 27.06    -0.337 N 
HETATM   23  C2A ZID A 300       4.178 -27.951  10.431  1.00 25.81     0.183 A 
ATOM     24  H1A ZID A 300       3.404 -26.211   9.652  1.00  0.00     0.168 HD
HETATM   25  N3A ZID A 300       5.007 -28.971  10.248  1.00 26.02    -0.336 N 
ATOM     26  H3A ZID A 300       5.142 -29.660  10.988  1.00  0.00     0.168 HD
BRANCH  20  27
HETATM   27  N6A ZID A 300       4.421 -26.177   7.338  1.00 26.06    -0.383 N 
ATOM     28 2H6A ZID A 300       3.919 -26.427   6.485  1.00  0.00     0.157 HD
ATOM     29 1H6A ZID A 300       4.733 -25.213   7.454  1.00  0.00     0.157 HD
ENDBRANCH  20  27
ENDBRANCH  12  15
BRANCH  13  30
HETATM   30  O2B ZID A 300       9.355 -31.121   8.918  1.00 34.28    -0.388 OA
ATOM     31  H2B ZID A 300      10.010 -30.433   8.957  1.00  0.00     0.210 HD
ENDBRANCH  13  30
BRANCH  14  32
HETATM   32  O3B ZID A 300       8.875 -33.313  10.246  1.00 26.39    -0.390 OA
ATOM     33  H3B ZID A 300       9.324 -33.865  10.875  1.00  0.00     0.210 HD
ENDBRANCH  14  32
ENDBRANCH   9  10
ENDBRANCH   8   9
ENDBRANCH   5   8
ENDBRANCH   4   5
ENDBRANCH   1   4
BRANCH   1  34
HETATM   34  O5D ZID A 300       3.033 -35.560  12.269  1.00 27.38    -0.287 OA
BRANCH  34  35
HETATM   35  C5D ZID A 300       1.700 -35.209  11.912  1.00 26.32     0.216 C 
BRANCH  35  36
HETATM   36  C4D ZID A 300       1.737 -33.978  11.003  1.00 26.54     0.180 C 
HETATM   37  O4D ZID A 300       0.722 -33.076  11.545  1.00 26.70    -0.353 OA
HETATM   38  C1D ZID A 300       1.294 -31.804  11.602  1.00 24.37     0.259 C 
HETATM   39  C2D ZID A 300       2.764 -32.098  11.958  1.00 23.83     0.198 C 
HETATM   40  C3D ZID A 300       3.099 -33.243  11.039  1.00 24.97     0.182 C 
BRANCH  38  41
HETATM   41  N1N ZID A 300       0.798 -30.886  12.600  1.00 25.28    -0.336 N 
HETATM   42  C2N ZID A 300       0.252 -29.697  12.235  1.00 22.44     0.111 A 
HETATM   43  C3N ZID A 300      -0.266 -28.905  13.187  1.00 25.89     0.056 A 
HETATM   44  C4N ZID A 300      -0.201 -29.408  14.501  1.00 26.60    -0.007 A 
HETATM   45  C5N ZID A 300       0.264 -30.655  14.828  1.00 27.45     0.028 A 
HETATM   46  C6N ZID A 300       0.789 -31.372  13.823  1.00 24.23     0.094 A 
BRANCH  43  47
HETATM   47  C7N ZID A 300      -0.769 -27.495  12.844  1.00 28.02     0.251 C 
HETATM   48  O7N ZID A 300      -1.882 -27.315  12.314  1.00 26.84    -0.268 OA
HETATM   49  N7N ZID A 300       0.086 -26.490  12.841  1.00 23.44    -0.366 N 
ATOM     50 2H7N ZID A 300       0.997 -26.637  13.275  1.00  0.00     0.159 HD
ATOM     51 1H7N ZID A 300      -0.248 -25.553  12.613  1.00  0.00     0.159 HD
ENDBRANCH  43  47
BRANCH  44  52
HETATM   52  C7Z ZID A 300      -1.088 -28.761  15.308  1.00 27.75     0.185 C 
BRANCH  52  53
HETATM   53  O7Z ZID A 300      -1.124 -30.047  16.143  1.00 23.71    -0.386 OA
ATOM     54  H7Z ZID A 300      -1.433 -29.505  16.859  1.00  0.00     0.210 HD
ENDBRANCH  52  53
BRANCH  52  55
HETATM   55  C4Z ZID A 300      -0.900 -27.969  16.535  1.00 23.40    -0.023 A 
HETATM   56  C3Z ZID A 300      -0.319 -26.724  16.512  1.00 23.67     0.027 A 
HETATM   57  C2Z ZID A 300      -0.339 -25.991  17.689  1.00 22.98     0.088 A 
HETATM   58  N1Z ZID A 300      -0.939 -26.451  18.816  1.00 25.57    -0.375 N 
HETATM   59  C6Z ZID A 300      -1.584 -27.638  18.849  1.00 26.04     0.088 A 
ATOM     60  H1Z ZID A 300      -0.901 -25.884  19.664  1.00  0.00     0.164 HD
HETATM   61  C5Z ZID A 300      -1.592 -28.402  17.704  1.00 24.83     0.027 A 
ENDBRANCH  52  55
ENDBRANCH  44  52
ENDBRANCH  38  41
BRANCH  39  62
HETATM   62  O2D ZID A 300       3.737 -31.020  11.798  1.00 23.60    -0.388 OA
ATOM     63  H2D ZID A 300       3.991 -30.937  10.887  1.00  0.00     0.210 HD
ENDBRANCH  39  62
BRANCH  40  64
HETATM   64  O3D ZID A 300       3.397 -32.665   9.731  1.00 26.13    -0.390 OA
ATOM     65  H3D ZID A 300       3.645 -33.348   9.119  1.00  0.00     0.210 HD
ENDBRANCH  40  64
ENDBRANCH  35  36
ENDBRANCH  34  35
ENDBRANCH   1  34
TORSDOF 19
ENDMDL
MODEL 7
REMARK VINA RESULT:      -9.4      3.113      4.854
REMARK  19 active torsions:
REMARK  status: ('A' for Active; 'I' for Inactive)
REMARK    1  A    between atoms: PA_1  and  O5B_4 
REMARK    2  A    between atoms: PA_1  and  O3_30 
REMARK    3  A    between atoms: O5B_4  and  C5B_5 
REMARK    4  A    between atoms: C5B_5  and  C4B_6 
REMARK    5  A    between atoms: C3B_8  and  O3B_9 
REMARK    6  A    between atoms: C2B_11  and  O2B_12 
REMARK    7  A    between atoms: C1B_14  and  N9A_15 
REMARK    8  A    between atoms: C6A_20  and  N6A_21 
REMARK    9  A    between atoms: O3_30  and  PN_31 
REMARK   10  A    between atoms: PN_31  and  O5D_34 
REMARK   11  A    between atoms: O5D_34  and  C5D_35 
REMARK   12  A    between atoms: C5D_35  and  C4D_36 
REMARK   13  A    between atoms: C3D_38  and  O3D_39 
REMARK   14  A    between atoms: C2D_41  and  O2D_42 
REMARK   15  A    between atoms: C1D_44  and  N1N_45 
REMARK   16  A    between atoms: C3N_47  and  C7N_48 
REMARK       I    between atoms: C7N_48  and  N7N_50 
REMARK   17  A    between atoms: C4N_53  and  C7Z_56 
REMARK   18  A    between atoms: C7Z_56  and  O7Z_57 
REMARK   19  A    between atoms: C7Z_56  and  C4Z_63 
ROOT
HETATM    1  PN  ZID A 300       0.701 -33.124  10.890  1.00 26.51     0.417 P 
HETATM    2  O1N ZID A 300      -0.101 -32.697  12.076  1.00 30.48    -0.624 OA
HETATM    3  O2N ZID A 300       0.207 -34.166   9.926  1.00 28.40    -0.624 OA
ENDROOT
BRANCH   1   4
HETATM    4  O3  ZID A 300       2.181 -33.461  11.494  1.00 30.29    -0.180 OA
BRANCH   4   5
HETATM    5  PA  ZID A 300       2.706 -33.247  13.040  1.00 28.62     0.417 P 
HETATM    6  O1A ZID A 300       2.259 -31.845  13.369  1.00 28.37    -0.624 OA
HETATM    7  O2A ZID A 300       2.378 -34.430  13.897  1.00 30.19    -0.624 OA
BRANCH   5   8
HETATM    8  O5B ZID A 300       4.287 -33.327  12.862  1.00 29.52    -0.287 OA
BRANCH   8   9
HETATM    9  C5B ZID A 300       4.908 -34.036  11.807  1.00 27.76     0.216 C 
BRANCH   9  10
HETATM   10  C4B ZID A 300       5.202 -35.374  12.444  1.00 27.48     0.180 C 
HETATM   11  O4B ZID A 300       6.222 -36.023  11.695  1.00 27.81    -0.353 OA
HETATM   12  C1B ZID A 300       6.948 -36.783  12.621  1.00 28.20     0.262 C 
HETATM   13  C2B ZID A 300       7.119 -35.834  13.816  1.00 28.50     0.198 C 
HETATM   14  C3B ZID A 300       5.739 -35.228  13.887  1.00 25.42     0.182 C 
BRANCH  12  15
HETATM   15  N9A ZID A 300       8.254 -37.263  12.175  1.00 26.08    -0.297 N 
HETATM   16  C8A ZID A 300       8.937 -38.296  12.694  1.00 24.53     0.188 A 
HETATM   17  N7A ZID A 300      10.020 -38.472  11.951  1.00 23.35    -0.346 N 
HETATM   18  C5A ZID A 300       9.985 -37.581  10.923  1.00 25.38     0.122 A 
ATOM     19  H7A ZID A 300      10.756 -39.157  12.122  1.00  0.00     0.167 HD
HETATM   20  C6A ZID A 300      10.826 -37.318   9.853  1.00 23.71     0.131 A 
HETATM   21  C4A ZID A 300       8.849 -36.842  11.069  1.00 23.66     0.142 A 
HETATM   22  N1A ZID A 300      10.511 -36.318   9.025  1.00 27.06    -0.337 N 
HETATM   23  C2A ZID A 300       9.364 -35.616   9.184  1.00 25.81     0.183 A 
ATOM     24  H1A ZID A 300      11.144 -36.079   8.261  1.00  0.00     0.168 HD
HETATM   25  N3A ZID A 300       8.550 -35.864  10.202  1.00 26.02    -0.336 N 
ATOM     26  H3A ZID A 300       7.701 -35.312  10.325  1.00  0.00     0.168 HD
BRANCH  20  27
HETATM   27  N6A ZID A 300      11.961 -38.028   9.650  1.00 26.06    -0.383 N 
ATOM     28 2H6A ZID A 300      12.383 -38.542  10.424  1.00  0.00     0.157 HD
ATOM     29 1H6A ZID A 300      12.401 -38.083   8.732  1.00  0.00     0.157 HD
ENDBRANCH  20  27
ENDBRANCH  12  15
BRANCH  13  30
HETATM   30  O2B ZID A 300       7.477 -36.546  15.011  1.00 34.28    -0.388 OA
ATOM     31  H2B ZID A 300       6.762 -37.069  15.355  1.00  0.00     0.210 HD
ENDBRANCH  13  30
BRANCH  14  32
HETATM   32  O3B ZID A 300       4.937 -36.027  14.728  1.00 26.39    -0.390 OA
ATOM     33  H3B ZID A 300       5.497 -36.684  15.124  1.00  0.00     0.210 HD
ENDBRANCH  14  32
ENDBRANCH   9  10
ENDBRANCH   8   9
ENDBRANCH   5   8
ENDBRANCH   4   5
ENDBRANCH   1   4
BRANCH   1  34
HETATM   34  O5D ZID A 300       1.111 -31.876  10.001  1.00 27.38    -0.287 OA
BRANCH  34  35
HETATM   35  C5D ZID A 300       0.532 -31.603   8.729  1.00 26.32     0.216 C 
BRANCH  35  36
HETATM   36  C4D ZID A 300       0.275 -30.098   8.613  1.00 26.54     0.180 C 
HETATM   37  O4D ZID A 300      -0.520 -29.757   9.792  1.00 26.70    -0.353 OA
HETATM   38  C1D ZID A 300       0.035 -28.600  10.338  1.00 24.37     0.259 C 
HETATM   39  C2D ZID A 300       1.544 -28.781  10.080  1.00 23.83     0.198 C 
HETATM   40  C3D ZID A 300       1.575 -29.260   8.653  1.00 24.97     0.182 C 
BRANCH  38  41
HETATM   41  N1N ZID A 300      -0.121 -28.381  11.757  1.00 25.28    -0.336 N 
HETATM   42  C2N ZID A 300      -0.366 -29.423  12.594  1.00 22.44     0.111 A 
HETATM   43  C3N ZID A 300      -0.429 -29.190  13.914  1.00 25.89     0.056 A 
HETATM   44  C4N ZID A 300      -0.216 -27.855  14.308  1.00 26.60    -0.007 A 
HETATM   45  C5N ZID A 300       0.129 -26.842  13.451  1.00 27.45     0.028 A 
HETATM   46  C6N ZID A 300       0.144 -27.153  12.146  1.00 24.23     0.094 A 
BRANCH  43  47
HETATM   47  C7N ZID A 300      -0.838 -30.305  14.887  1.00 28.02     0.251 C 
HETATM   48  O7N ZID A 300      -1.798 -30.165  15.668  1.00 26.84    -0.268 OA
HETATM   49  N7N ZID A 300      -0.003 -31.305  15.108  1.00 23.44    -0.366 N 
ATOM     50 2H7N ZID A 300       0.783 -31.420  14.468  1.00  0.00     0.159 HD
ATOM     51 1H7N ZID A 300      -0.275 -32.046  15.754  1.00  0.00     0.159 HD
ENDBRANCH  43  47
BRANCH  44  52
HETATM   52  C7Z ZID A 300       0.108 -27.790  15.630  1.00 27.75     0.185 C 
BRANCH  52  53
HETATM   53  O7Z ZID A 300       0.992 -26.593  15.260  1.00 23.71    -0.386 OA
ATOM     54  H7Z ZID A 300       1.187 -27.059  14.455  1.00  0.00     0.210 HD
ENDBRANCH  52  53
BRANCH  52  55
HETATM   55  C4Z ZID A 300      -0.469 -27.019  16.744  1.00 23.40    -0.023 A 
HETATM   56  C3Z ZID A 300      -1.113 -27.631  17.793  1.00 23.67     0.027 A 
HETATM   57  C2Z ZID A 300      -1.473 -26.836  18.870  1.00 22.98     0.088 A 
HETATM   58  N1Z ZID A 300      -1.175 -25.513  18.923  1.00 25.57    -0.375 N 
HETATM   59  C6Z ZID A 300      -0.476 -24.898  17.942  1.00 26.04     0.088 A 
ATOM     60  H1Z ZID A 300      -1.487 -24.967  19.726  1.00  0.00     0.164 HD
HETATM   61  C5Z ZID A 300      -0.096 -25.647  16.851  1.00 24.83     0.027 A 
ENDBRANCH  52  55
ENDBRANCH  44  52
ENDBRANCH  38  41
BRANCH  39  62
HETATM   62  O2D ZID A 300       2.412 -27.617  10.243  1.00 23.60    -0.388 OA
ATOM     63  H2D ZID A 300       1.999 -26.974  10.807  1.00  0.00     0.210 HD
ENDBRANCH  39  62
BRANCH  40  64
HETATM   64  O3D ZID A 300       1.441 -28.077   7.805  1.00 26.13    -0.390 OA
ATOM     65  H3D ZID A 300       0.826 -28.247   7.100  1.00  0.00     0.210 HD
ENDBRANCH  40  64
ENDBRANCH  35  36
ENDBRANCH  34  35
ENDBRANCH   1  34
TORSDOF 19
ENDMDL
MODEL 8
REMARK VINA RESULT:      -9.4      3.521      5.901
REMARK  19 active torsions:
REMARK  status: ('A' for Active; 'I' for Inactive)
REMARK    1  A    between atoms: PA_1  and  O5B_4 
REMARK    2  A    between atoms: PA_1  and  O3_30 
REMARK    3  A    between atoms: O5B_4  and  C5B_5 
REMARK    4  A    between atoms: C5B_5  and  C4B_6 
REMARK    5  A    between atoms: C3B_8  and  O3B_9 
REMARK    6  A    between atoms: C2B_11  and  O2B_12 
REMARK    7  A    between atoms: C1B_14  and  N9A_15 
REMARK    8  A    between atoms: C6A_20  and  N6A_21 
REMARK    9  A    between atoms: O3_30  and  PN_31 
REMARK   10  A    between atoms: PN_31  and  O5D_34 
REMARK   11  A    between atoms: O5D_34  and  C5D_35 
REMARK   12  A    between atoms: C5D_35  and  C4D_36 
REMARK   13  A    between atoms: C3D_38  and  O3D_39 
REMARK   14  A    between atoms: C2D_41  and  O2D_42 
REMARK   15  A    between atoms: C1D_44  and  N1N_45 
REMARK   16  A    between atoms: C3N_47  and  C7N_48 
REMARK       I    between atoms: C7N_48  and  N7N_50 
REMARK   17  A    between atoms: C4N_53  and  C7Z_56 
REMARK   18  A    between atoms: C7Z_56  and  O7Z_57 
REMARK   19  A    between atoms: C7Z_56  and  C4Z_63 
ROOT
HETATM    1  PN  ZID A 300       2.906 -27.607   9.300  1.00 26.51     0.417 P 
HETATM    2  O1N ZID A 300       3.109 -26.251   8.705  1.00 30.48    -0.624 OA
HETATM    3  O2N ZID A 300       2.549 -27.799  10.747  1.00 28.40    -0.624 OA
ENDROOT
BRANCH   1   4
HETATM    4  O3  ZID A 300       4.227 -28.455   8.849  1.00 30.29    -0.180 OA
BRANCH   4   5
HETATM    5  PA  ZID A 300       5.744 -28.363   9.483  1.00 28.62     0.417 P 
HETATM    6  O1A ZID A 300       6.632 -28.702   8.312  1.00 28.37    -0.624 OA
HETATM    7  O2A ZID A 300       5.919 -27.126  10.307  1.00 30.19    -0.624 OA
BRANCH   5   8
HETATM    8  O5B ZID A 300       5.722 -29.541  10.555  1.00 29.52    -0.287 OA
BRANCH   8   9
HETATM    9  C5B ZID A 300       5.753 -30.909  10.196  1.00 27.76     0.216 C 
BRANCH   9  10
HETATM   10  C4B ZID A 300       6.090 -31.582  11.507  1.00 27.48     0.180 C 
HETATM   11  O4B ZID A 300       4.882 -31.995  12.133  1.00 27.81    -0.353 OA
HETATM   12  C1B ZID A 300       5.203 -33.159  12.842  1.00 28.20     0.262 C 
HETATM   13  C2B ZID A 300       6.072 -33.957  11.861  1.00 28.50     0.198 C 
HETATM   14  C3B ZID A 300       6.943 -32.856  11.306  1.00 25.42     0.182 C 
BRANCH  12  15
HETATM   15  N9A ZID A 300       4.073 -33.975  13.283  1.00 26.08    -0.297 N 
HETATM   16  C8A ZID A 300       3.957 -34.592  14.470  1.00 24.53     0.188 A 
HETATM   17  N7A ZID A 300       2.751 -35.140  14.518  1.00 23.35    -0.346 N 
HETATM   18  C5A ZID A 300       2.083 -34.812  13.378  1.00 25.38     0.122 A 
ATOM     19  H7A ZID A 300       2.385 -35.711  15.280  1.00  0.00     0.167 HD
HETATM   20  C6A ZID A 300       0.813 -35.089  12.897  1.00 23.71     0.131 A 
HETATM   21  C4A ZID A 300       2.927 -34.056  12.620  1.00 23.66     0.142 A 
HETATM   22  N1A ZID A 300       0.478 -34.637  11.685  1.00 27.06    -0.337 N 
HETATM   23  C2A ZID A 300       1.331 -33.870  10.966  1.00 25.81     0.183 A 
ATOM     24  H1A ZID A 300      -0.435 -34.873  11.296  1.00  0.00     0.168 HD
HETATM   25  N3A ZID A 300       2.547 -33.595  11.421  1.00 26.02    -0.336 N 
ATOM     26  H3A ZID A 300       3.190 -33.036  10.859  1.00  0.00     0.168 HD
BRANCH  20  27
HETATM   27  N6A ZID A 300      -0.072 -35.823  13.610  1.00 26.06    -0.383 N 
ATOM     28 2H6A ZID A 300      -1.065 -35.785  13.380  1.00  0.00     0.157 HD
ATOM     29 1H6A ZID A 300       0.229 -36.438  14.367  1.00  0.00     0.157 HD
ENDBRANCH  20  27
ENDBRANCH  12  15
BRANCH  13  30
HETATM   30  O2B ZID A 300       6.827 -34.979  12.531  1.00 34.28    -0.388 OA
ATOM     31  H2B ZID A 300       7.701 -35.085  12.173  1.00  0.00     0.210 HD
ENDBRANCH  13  30
BRANCH  14  32
HETATM   32  O3B ZID A 300       8.091 -32.737  12.116  1.00 26.39    -0.390 OA
ATOM     33  H3B ZID A 300       8.695 -33.427  11.868  1.00  0.00     0.210 HD
ENDBRANCH  14  32
ENDBRANCH   9  10
ENDBRANCH   8   9
ENDBRANCH   5   8
ENDBRANCH   4   5
ENDBRANCH   1   4
BRANCH   1  34
HETATM   34  O5D ZID A 300       1.830 -28.433   8.478  1.00 27.38    -0.287 OA
BRANCH  34  35
HETATM   35  C5D ZID A 300       0.765 -27.822   7.756  1.00 26.32     0.216 C 
BRANCH  35  36
HETATM   36  C4D ZID A 300      -0.559 -28.454   8.194  1.00 26.54     0.180 C 
HETATM   37  O4D ZID A 300      -0.326 -28.913   9.562  1.00 26.70    -0.353 OA
HETATM   38  C1D ZID A 300      -1.427 -28.513  10.321  1.00 24.37     0.259 C 
HETATM   39  C2D ZID A 300      -1.804 -27.155   9.697  1.00 23.83     0.198 C 
HETATM   40  C3D ZID A 300      -1.730 -27.443   8.221  1.00 24.97     0.182 C 
BRANCH  38  41
HETATM   41  N1N ZID A 300      -1.225 -28.281  11.732  1.00 25.28    -0.336 N 
HETATM   42  C2N ZID A 300      -1.447 -29.274  12.633  1.00 22.44     0.111 A 
HETATM   43  C3N ZID A 300      -1.175 -29.043  13.928  1.00 25.89     0.056 A 
HETATM   44  C4N ZID A 300      -0.662 -27.765  14.224  1.00 26.60    -0.007 A 
HETATM   45  C5N ZID A 300      -0.353 -26.819  13.282  1.00 27.45     0.028 A 
HETATM   46  C6N ZID A 300      -0.680 -27.118  12.016  1.00 24.23     0.094 A 
BRANCH  43  47
HETATM   47  C7N ZID A 300      -1.536 -30.081  15.000  1.00 28.02     0.251 C 
HETATM   48  O7N ZID A 300      -0.802 -31.061  15.227  1.00 26.84    -0.268 OA
HETATM   49  N7N ZID A 300      -2.763 -30.101  15.488  1.00 23.44    -0.366 N 
ATOM     50 2H7N ZID A 300      -3.364 -29.299  15.303  1.00  0.00     0.159 HD
ATOM     51 1H7N ZID A 300      -3.003 -30.791  16.201  1.00  0.00     0.159 HD
ENDBRANCH  43  47
BRANCH  44  52
HETATM   52  C7Z ZID A 300      -0.045 -27.766  15.440  1.00 27.75     0.185 C 
BRANCH  52  53
HETATM   53  O7Z ZID A 300       0.840 -26.643  14.888  1.00 23.71    -0.386 OA
ATOM     54  H7Z ZID A 300       0.156 -26.496  14.246  1.00  0.00     0.210 HD
ENDBRANCH  52  53
BRANCH  52  55
HETATM   55  C4Z ZID A 300      -0.285 -26.978  16.661  1.00 23.40    -0.023 A 
HETATM   56  C3Z ZID A 300      -0.038 -25.627  16.711  1.00 23.67     0.027 A 
HETATM   57  C2Z ZID A 300      -0.452 -24.947  17.847  1.00 22.98     0.088 A 
HETATM   58  N1Z ZID A 300      -1.111 -25.566  18.859  1.00 25.57    -0.375 N 
HETATM   59  C6Z ZID A 300      -1.436 -26.877  18.805  1.00 26.04     0.088 A 
ATOM     60  H1Z ZID A 300      -1.369 -25.025  19.685  1.00  0.00     0.164 HD
HETATM   61  C5Z ZID A 300      -1.046 -27.595  17.696  1.00 24.83     0.027 A 
ENDBRANCH  52  55
ENDBRANCH  44  52
ENDBRANCH  38  41
BRANCH  39  62
HETATM   62  O2D ZID A 300      -3.106 -26.583  10.036  1.00 23.60    -0.388 OA
ATOM     63  H2D ZID A 300      -3.312 -25.864   9.451  1.00  0.00     0.210 HD
ENDBRANCH  39  62
BRANCH  40  64
HETATM   64  O3D ZID A 300      -2.979 -28.105   7.854  1.00 26.13    -0.390 OA
ATOM     65  H3D ZID A 300      -3.685 -27.471   7.804  1.00  0.00     0.210 HD
ENDBRANCH  40  64
ENDBRANCH  35  36
ENDBRANCH  34  35
ENDBRANCH   1  34
TORSDOF 19
ENDMDL
MODEL 9
REMARK VINA RESULT:      -9.2      3.061      7.029
REMARK  19 active torsions:
REMARK  status: ('A' for Active; 'I' for Inactive)
REMARK    1  A    between atoms: PA_1  and  O5B_4 
REMARK    2  A    between atoms: PA_1  and  O3_30 
REMARK    3  A    between atoms: O5B_4  and  C5B_5 
REMARK    4  A    between atoms: C5B_5  and  C4B_6 
REMARK    5  A    between atoms: C3B_8  and  O3B_9 
REMARK    6  A    between atoms: C2B_11  and  O2B_12 
REMARK    7  A    between atoms: C1B_14  and  N9A_15 
REMARK    8  A    between atoms: C6A_20  and  N6A_21 
REMARK    9  A    between atoms: O3_30  and  PN_31 
REMARK   10  A    between atoms: PN_31  and  O5D_34 
REMARK   11  A    between atoms: O5D_34  and  C5D_35 
REMARK   12  A    between atoms: C5D_35  and  C4D_36 
REMARK   13  A    between atoms: C3D_38  and  O3D_39 
REMARK   14  A    between atoms: C2D_41  and  O2D_42 
REMARK   15  A    between atoms: C1D_44  and  N1N_45 
REMARK   16  A    between atoms: C3N_47  and  C7N_48 
REMARK       I    between atoms: C7N_48  and  N7N_50 
REMARK   17  A    between atoms: C4N_53  and  C7Z_56 
REMARK   18  A    between atoms: C7Z_56  and  O7Z_57 
REMARK   19  A    between atoms: C7Z_56  and  C4Z_63 
ROOT
HETATM    1  PN  ZID A 300       0.886 -32.353  12.714  1.00 26.51     0.417 P 
HETATM    2  O1N ZID A 300       1.241 -31.996  11.307  1.00 30.48    -0.624 OA
HETATM    3  O2N ZID A 300       1.847 -32.165  13.853  1.00 28.40    -0.624 OA
ENDROOT
BRANCH   1   4
HETATM    4  O3  ZID A 300       0.299 -33.875  12.614  1.00 30.29    -0.180 OA
BRANCH   4   5
HETATM    5  PA  ZID A 300       1.113 -35.239  12.181  1.00 28.62     0.417 P 
HETATM    6  O1A ZID A 300       0.708 -36.237  13.236  1.00 28.37    -0.624 OA
HETATM    7  O2A ZID A 300       0.987 -35.508  10.714  1.00 30.19    -0.624 OA
BRANCH   5   8
HETATM    8  O5B ZID A 300       2.630 -34.786  12.362  1.00 29.52    -0.287 OA
BRANCH   8   9
HETATM    9  C5B ZID A 300       3.578 -35.545  13.087  1.00 27.76     0.216 C 
BRANCH   9  10
HETATM   10  C4B ZID A 300       4.762 -34.608  13.153  1.00 27.48     0.180 C 
HETATM   11  O4B ZID A 300       5.937 -35.331  12.805  1.00 27.81    -0.353 OA
HETATM   12  C1B ZID A 300       6.778 -34.405  12.173  1.00 28.20     0.262 C 
HETATM   13  C2B ZID A 300       5.836 -33.637  11.236  1.00 28.50     0.198 C 
HETATM   14  C3B ZID A 300       4.643 -33.445  12.141  1.00 25.42     0.182 C 
BRANCH  12  15
HETATM   15  N9A ZID A 300       7.891 -34.966  11.411  1.00 26.08    -0.297 N 
HETATM   16  C8A ZID A 300       8.672 -34.300  10.545  1.00 24.53     0.188 A 
HETATM   17  N7A ZID A 300       9.622 -35.133  10.143  1.00 23.35    -0.346 N 
HETATM   18  C5A ZID A 300       9.471 -36.310  10.808  1.00 25.38     0.122 A 
ATOM     19  H7A ZID A 300      10.343 -34.927   9.451  1.00  0.00     0.167 HD
HETATM   20  C6A ZID A 300      10.163 -37.511  10.801  1.00 23.71     0.131 A 
HETATM   21  C4A ZID A 300       8.385 -36.177  11.622  1.00 23.66     0.142 A 
HETATM   22  N1A ZID A 300       9.714 -38.511  11.565  1.00 27.06    -0.337 N 
HETATM   23  C2A ZID A 300       8.646 -38.340  12.379  1.00 25.81     0.183 A 
ATOM     24  H1A ZID A 300      10.182 -39.416  11.535  1.00  0.00     0.168 HD
HETATM   25  N3A ZID A 300       7.979 -37.193  12.397  1.00 26.02    -0.336 N 
ATOM     26  H3A ZID A 300       7.162 -37.084  12.997  1.00  0.00     0.168 HD
BRANCH  20  27
HETATM   27  N6A ZID A 300      11.255 -37.697  10.023  1.00 26.06    -0.383 N 
ATOM     28 2H6A ZID A 300      11.404 -37.103   9.207  1.00  0.00     0.157 HD
ATOM     29 1H6A ZID A 300      11.953 -38.408  10.242  1.00  0.00     0.157 HD
ENDBRANCH  20  27
ENDBRANCH  12  15
BRANCH  13  30
HETATM   30  O2B ZID A 300       6.414 -32.395  10.806  1.00 34.28    -0.388 OA
ATOM     31  H2B ZID A 300       7.192 -32.516  10.274  1.00  0.00     0.210 HD
ENDBRANCH  13  30
BRANCH  14  32
HETATM   32  O3B ZID A 300       4.805 -32.238  12.852  1.00 26.39    -0.390 OA
ATOM     33  H3B ZID A 300       5.407 -31.691  12.361  1.00  0.00     0.210 HD
ENDBRANCH  14  32
ENDBRANCH   9  10
ENDBRANCH   8   9
ENDBRANCH   5   8
ENDBRANCH   4   5
ENDBRANCH   1   4
BRANCH   1  34
HETATM   34  O5D ZID A 300      -0.456 -31.635  13.161  1.00 27.38    -0.287 OA
BRANCH  34  35
HETATM   35  C5D ZID A 300      -0.586 -30.923  14.387  1.00 26.32     0.216 C 
BRANCH  35  36
HETATM   36  C4D ZID A 300      -0.878 -29.452  14.080  1.00 26.54     0.180 C 
HETATM   37  O4D ZID A 300       0.397 -28.899  13.625  1.00 26.70    -0.353 OA
HETATM   38  C1D ZID A 300       0.132 -28.148  12.480  1.00 24.37     0.259 C 
HETATM   39  C2D ZID A 300      -0.995 -28.943  11.794  1.00 23.83     0.198 C 
HETATM   40  C3D ZID A 300      -1.912 -29.268  12.943  1.00 24.97     0.182 C 
BRANCH  38  41
HETATM   41  N1N ZID A 300       1.190 -28.002  11.509  1.00 25.28    -0.336 N 
HETATM   42  C2N ZID A 300       2.188 -28.921  11.431  1.00 22.44     0.111 A 
HETATM   43  C3N ZID A 300       3.111 -28.791  10.465  1.00 25.89     0.056 A 
HETATM   44  C4N ZID A 300       2.938 -27.694   9.599  1.00 26.60    -0.007 A 
HETATM   45  C5N ZID A 300       1.865 -26.841   9.638  1.00 27.45     0.028 A 
HETATM   46  C6N ZID A 300       1.003 -27.023  10.650  1.00 24.23     0.094 A 
BRANCH  43  47
HETATM   47  C7N ZID A 300       4.332 -29.721  10.419  1.00 28.02     0.251 C 
HETATM   48  O7N ZID A 300       4.318 -30.777   9.759  1.00 26.84    -0.268 OA
HETATM   49  N7N ZID A 300       5.298 -29.558  11.304  1.00 23.44    -0.366 N 
ATOM     50 2H7N ZID A 300       5.310 -28.693  11.844  1.00  0.00     0.159 HD
ATOM     51 1H7N ZID A 300       6.109 -30.176  11.274  1.00  0.00     0.159 HD
ENDBRANCH  43  47
BRANCH  44  52
HETATM   52  C7Z ZID A 300       3.642 -27.875   8.447  1.00 27.75     0.185 C 
BRANCH  52  53
HETATM   53  O7Z ZID A 300       2.402 -27.349   7.714  1.00 23.71    -0.386 OA
ATOM     54  H7Z ZID A 300       2.645 -27.933   7.005  1.00  0.00     0.210 HD
ENDBRANCH  52  53
BRANCH  52  55
HETATM   55  C4Z ZID A 300       4.492 -26.961   7.664  1.00 23.40    -0.023 A 
HETATM   56  C3Z ZID A 300       5.499 -26.229   8.247  1.00 23.67     0.027 A 
HETATM   57  C2Z ZID A 300       6.347 -25.528   7.402  1.00 22.98     0.088 A 
HETATM   58  N1Z ZID A 300       6.228 -25.584   6.051  1.00 25.57    -0.375 N 
HETATM   59  C6Z ZID A 300       5.298 -26.355   5.446  1.00 26.04     0.088 A 
ATOM     60  H1Z ZID A 300       6.861 -25.028   5.476  1.00  0.00     0.164 HD
HETATM   61  C5Z ZID A 300       4.432 -27.070   6.244  1.00 24.83     0.027 A 
ENDBRANCH  52  55
ENDBRANCH  44  52
ENDBRANCH  38  41
BRANCH  39  62
HETATM   62  O2D ZID A 300      -1.741 -28.290  10.720  1.00 23.60    -0.388 OA
ATOM     63  H2D ZID A 300      -1.144 -27.860  10.119  1.00  0.00     0.210 HD
ENDBRANCH  39  62
BRANCH  40  64
HETATM   64  O3D ZID A 300      -2.724 -28.078  13.187  1.00 26.13    -0.390 OA
ATOM     65  H3D ZID A 300      -3.648 -28.288  13.104  1.00  0.00     0.210 HD
ENDBRANCH  40  64
ENDBRANCH  35  36
ENDBRANCH  34  35
ENDBRANCH   1  34
TORSDOF 19
ENDMDL
