MODEL 1
REMARK VINA RESULT:     -10.0      0.000      0.000
REMARK  19 active torsions:
REMARK  status: ('A' for Active; 'I' for Inactive)
REMARK    1  A    between atoms: PA_1  and  O5B_4 
REMARK    2  A    between atoms: PA_1  and  O3_30 
REMARK    3  A    between atoms: O5B_4  and  C5B_5 
REMARK    4  A    between atoms: C5B_5  and  C4B_6 
REMARK    5  A    between atoms: C3B_8  and  O3B_9 
REMARK    6  A    between atoms: C2B_11  and  O2B_12 
REMARK    7  A    between atoms: C1B_14  and  N9A_15 
REMARK    8  A    between atoms: C6A_20  and  N6A_21 
REMARK    9  A    between atoms: O3_30  and  PN_31 
REMARK   10  A    between atoms: PN_31  and  O5D_34 
REMARK   11  A    between atoms: O5D_34  and  C5D_35 
REMARK   12  A    between atoms: C5D_35  and  C4D_36 
REMARK   13  A    between atoms: C3D_38  and  O3D_39 
REMARK   14  A    between atoms: C2D_41  and  O2D_42 
REMARK   15  A    between atoms: C1D_44  and  N1N_45 
REMARK   16  A    between atoms: C3N_47  and  C7N_48 
REMARK       I    between atoms: C7N_48  and  N7N_50 
REMARK   17  A    between atoms: C4N_53  and  C7Z_56 
REMARK   18  A    between atoms: C7Z_56  and  O7Z_57 
REMARK   19  A    between atoms: C7Z_56  and  C4Z_63 
ROOT
HETATM    1  PN  ZID A 300     -22.372  22.364 -15.373  1.00 26.51     0.417 P 
HETATM    2  O1N ZID A 300     -21.632  23.628 -15.669  1.00 30.48    -0.624 OA
HETATM    3  O2N ZID A 300     -23.060  21.571 -16.448  1.00 28.40    -0.624 OA
ENDROOT
BRANCH   1   4
HETATM    4  O3  ZID A 300     -23.360  22.748 -14.130  1.00 30.29    -0.180 OA
BRANCH   4   5
HETATM    5  PA  ZID A 300     -24.997  22.917 -14.163  1.00 28.62     0.417 P 
HETATM    6  O1A ZID A 300     -25.200  24.200 -14.931  1.00 28.37    -0.624 OA
HETATM    7  O2A ZID A 300     -25.672  21.633 -14.531  1.00 30.19    -0.624 OA
BRANCH   5   8
HETATM    8  O5B ZID A 300     -25.339  23.104 -12.619  1.00 29.52    -0.287 OA
BRANCH   8   9
HETATM    9  C5B ZID A 300     -26.595  22.766 -12.062  1.00 27.76     0.216 C 
BRANCH   9  10
HETATM   10  C4B ZID A 300     -27.108  24.104 -11.583  1.00 27.48     0.180 C 
HETATM   11  O4B ZID A 300     -25.998  24.960 -11.341  1.00 27.81    -0.353 OA
HETATM   12  C1B ZID A 300     -26.447  26.254 -11.635  1.00 28.20     0.262 C 
HETATM   13  C2B ZID A 300     -27.231  26.080 -12.943  1.00 28.50     0.198 C 
HETATM   14  C3B ZID A 300     -27.986  24.807 -12.645  1.00 25.42     0.182 C 
BRANCH  12  15
HETATM   15  N9A ZID A 300     -25.410  27.269 -11.808  1.00 26.08    -0.297 N 
HETATM   16  C8A ZID A 300     -25.461  28.536 -11.365  1.00 24.53     0.188 A 
HETATM   17  N7A ZID A 300     -24.291  29.100 -11.633  1.00 23.35    -0.346 N 
HETATM   18  C5A ZID A 300     -23.480  28.161 -12.193  1.00 25.38     0.122 A 
ATOM     19  H7A ZID A 300     -24.042  30.072 -11.451  1.00  0.00     0.167 HD
HETATM   20  C6A ZID A 300     -22.173  28.176 -12.654  1.00 23.71     0.131 A 
HETATM   21  C4A ZID A 300     -24.198  27.005 -12.274  1.00 23.66     0.142 A 
HETATM   22  N1A ZID A 300     -21.678  27.061 -13.201  1.00 27.06    -0.337 N 
HETATM   23  C2A ZID A 300     -22.408  25.923 -13.247  1.00 25.81     0.183 A 
ATOM     24  H1A ZID A 300     -20.735  27.069 -13.590  1.00  0.00     0.168 HD
HETATM   25  N3A ZID A 300     -23.659  25.898 -12.803  1.00 26.02    -0.336 N 
ATOM     26  H3A ZID A 300     -24.207  25.040 -12.864  1.00  0.00     0.168 HD
BRANCH  20  27
HETATM   27  N6A ZID A 300     -21.409  29.290 -12.588  1.00 26.06    -0.383 N 
ATOM     28 2H6A ZID A 300     -21.486  29.911 -11.783  1.00  0.00     0.157 HD
ATOM     29 1H6A ZID A 300     -20.735  29.521 -13.318  1.00  0.00     0.157 HD
ENDBRANCH  20  27
ENDBRANCH  12  15
BRANCH  13  30
HETATM   30  O2B ZID A 300     -28.100  27.196 -13.193  1.00 34.28    -0.388 OA
ATOM     31  H2B ZID A 300     -28.079  27.483 -14.098  1.00  0.00     0.210 HD
ENDBRANCH  13  30
BRANCH  14  32
HETATM   32  O3B ZID A 300     -29.213  25.141 -12.036  1.00 26.39    -0.390 OA
ATOM     33  H3B ZID A 300     -29.883  24.577 -12.404  1.00  0.00     0.210 HD
ENDBRANCH  14  32
ENDBRANCH   9  10
ENDBRANCH   8   9
ENDBRANCH   5   8
ENDBRANCH   4   5
ENDBRANCH   1   4
BRANCH   1  34
HETATM   34  O5D ZID A 300     -21.448  21.331 -14.602  1.00 27.38    -0.287 OA
BRANCH  34  35
HETATM   35  C5D ZID A 300     -21.481  21.162 -13.188  1.00 26.32     0.216 C 
BRANCH  35  36
HETATM   36  C4D ZID A 300     -20.046  21.054 -12.667  1.00 26.54     0.180 C 
HETATM   37  O4D ZID A 300     -19.203  21.469 -13.787  1.00 26.70    -0.353 OA
HETATM   38  C1D ZID A 300     -18.252  22.354 -13.278  1.00 24.37     0.259 C 
HETATM   39  C2D ZID A 300     -19.031  23.112 -12.186  1.00 23.83     0.198 C 
HETATM   40  C3D ZID A 300     -19.764  22.004 -11.478  1.00 24.97     0.182 C 
BRANCH  38  41
HETATM   41  N1N ZID A 300     -17.710  23.350 -14.171  1.00 25.28    -0.336 N 
HETATM   42  C2N ZID A 300     -16.487  23.178 -14.737  1.00 22.44     0.111 A 
HETATM   43  C3N ZID A 300     -16.050  24.089 -15.622  1.00 25.89     0.056 A 
HETATM   44  C4N ZID A 300     -16.936  25.151 -15.890  1.00 26.60    -0.007 A 
HETATM   45  C5N ZID A 300     -18.205  25.245 -15.382  1.00 27.45     0.028 A 
HETATM   46  C6N ZID A 300     -18.554  24.310 -14.485  1.00 24.23     0.094 A 
BRANCH  43  47
HETATM   47  C7N ZID A 300     -14.623  24.014 -16.183  1.00 28.02     0.251 C 
HETATM   48  O7N ZID A 300     -14.315  23.187 -17.062  1.00 26.84    -0.268 OA
HETATM   49  N7N ZID A 300     -13.646  24.624 -15.539  1.00 23.44    -0.366 N 
ATOM     50 2H7N ZID A 300     -13.898  25.302 -14.820  1.00  0.00     0.159 HD
ATOM     51 1H7N ZID A 300     -12.697  24.574 -15.912  1.00  0.00     0.159 HD
ENDBRANCH  43  47
BRANCH  44  52
HETATM   52  C7Z ZID A 300     -16.606  25.768 -17.059  1.00 27.75     0.185 C 
BRANCH  52  53
HETATM   53  O7Z ZID A 300     -18.045  26.296 -17.080  1.00 23.71    -0.386 OA
ATOM     54  H7Z ZID A 300     -17.946  26.437 -16.146  1.00  0.00     0.210 HD
ENDBRANCH  52  53
BRANCH  52  55
HETATM   55  C4Z ZID A 300     -16.104  27.123 -17.345  1.00 23.40    -0.023 A 
HETATM   56  C3Z ZID A 300     -15.580  27.459 -18.570  1.00 23.67     0.027 A 
HETATM   57  C2Z ZID A 300     -15.290  28.797 -18.792  1.00 22.98     0.088 A 
HETATM   58  N1Z ZID A 300     -15.545  29.755 -17.866  1.00 25.57    -0.375 N 
HETATM   59  C6Z ZID A 300     -16.131  29.467 -16.682  1.00 26.04     0.088 A 
ATOM     60  H1Z ZID A 300     -15.288  30.721 -18.069  1.00  0.00     0.164 HD
HETATM   61  C5Z ZID A 300     -16.437  28.151 -16.415  1.00 24.83     0.027 A 
ENDBRANCH  52  55
ENDBRANCH  44  52
ENDBRANCH  38  41
BRANCH  39  62
HETATM   62  O2D ZID A 300     -18.268  23.908 -11.227  1.00 23.60    -0.388 OA
ATOM     63  H2D ZID A 300     -17.337  23.759 -11.341  1.00  0.00     0.210 HD
ENDBRANCH  39  62
BRANCH  40  64
HETATM   64  O3D ZID A 300     -18.813  21.389 -10.554  1.00 26.13    -0.390 OA
ATOM     65  H3D ZID A 300     -19.037  20.476 -10.413  1.00  0.00     0.210 HD
ENDBRANCH  40  64
ENDBRANCH  35  36
ENDBRANCH  34  35
ENDBRANCH   1  34
TORSDOF 19
ENDMDL
MODEL 2
REMARK VINA RESULT:      -9.7      2.052      3.366
REMARK  19 active torsions:
REMARK  status: ('A' for Active; 'I' for Inactive)
REMARK    1  A    between atoms: PA_1  and  O5B_4 
REMARK    2  A    between atoms: PA_1  and  O3_30 
REMARK    3  A    between atoms: O5B_4  and  C5B_5 
REMARK    4  A    between atoms: C5B_5  and  C4B_6 
REMARK    5  A    between atoms: C3B_8  and  O3B_9 
REMARK    6  A    between atoms: C2B_11  and  O2B_12 
REMARK    7  A    between atoms: C1B_14  and  N9A_15 
REMARK    8  A    between atoms: C6A_20  and  N6A_21 
REMARK    9  A    between atoms: O3_30  and  PN_31 
REMARK   10  A    between atoms: PN_31  and  O5D_34 
REMARK   11  A    between atoms: O5D_34  and  C5D_35 
REMARK   12  A    between atoms: C5D_35  and  C4D_36 
REMARK   13  A    between atoms: C3D_38  and  O3D_39 
REMARK   14  A    between atoms: C2D_41  and  O2D_42 
REMARK   15  A    between atoms: C1D_44  and  N1N_45 
REMARK   16  A    between atoms: C3N_47  and  C7N_48 
REMARK       I    between atoms: C7N_48  and  N7N_50 
REMARK   17  A    between atoms: C4N_53  and  C7Z_56 
REMARK   18  A    between atoms: C7Z_56  and  O7Z_57 
REMARK   19  A    between atoms: C7Z_56  and  C4Z_63 
ROOT
HETATM    1  PN  ZID A 300     -24.951  21.971 -11.260  1.00 26.51     0.417 P 
HETATM    2  O1N ZID A 300     -24.966  20.647 -10.569  1.00 30.48    -0.624 OA
HETATM    3  O2N ZID A 300     -24.678  23.253 -10.525  1.00 28.40    -0.624 OA
ENDROOT
BRANCH   1   4
HETATM    4  O3  ZID A 300     -26.343  22.005 -12.113  1.00 30.29    -0.180 OA
BRANCH   4   5
HETATM    5  PA  ZID A 300     -27.881  22.020 -11.524  1.00 28.62     0.417 P 
HETATM    6  O1A ZID A 300     -28.614  21.072 -12.440  1.00 28.37    -0.624 OA
HETATM    7  O2A ZID A 300     -27.897  21.888 -10.033  1.00 30.19    -0.624 OA
BRANCH   5   8
HETATM    8  O5B ZID A 300     -28.316  23.530 -11.782  1.00 29.52    -0.287 OA
BRANCH   8   9
HETATM    9  C5B ZID A 300     -27.763  24.622 -11.072  1.00 27.76     0.216 C 
BRANCH   9  10
HETATM   10  C4B ZID A 300     -27.406  25.584 -12.181  1.00 27.48     0.180 C 
HETATM   11  O4B ZID A 300     -26.246  26.312 -11.798  1.00 27.81    -0.353 OA
HETATM   12  C1B ZID A 300     -25.555  26.577 -12.988  1.00 28.20     0.262 C 
HETATM   13  C2B ZID A 300     -25.619  25.247 -13.750  1.00 28.50     0.198 C 
HETATM   14  C3B ZID A 300     -27.054  24.852 -13.497  1.00 25.42     0.182 C 
BRANCH  12  15
HETATM   15  N9A ZID A 300     -24.164  27.001 -12.842  1.00 26.08    -0.297 N 
HETATM   16  C8A ZID A 300     -23.086  26.359 -13.321  1.00 24.53     0.188 A 
HETATM   17  N7A ZID A 300     -22.027  27.114 -13.066  1.00 23.35    -0.346 N 
HETATM   18  C5A ZID A 300     -22.451  28.266 -12.479  1.00 25.38     0.122 A 
ATOM     19  H7A ZID A 300     -21.058  26.872 -13.275  1.00  0.00     0.167 HD
HETATM   20  C6A ZID A 300     -21.803  29.400 -12.014  1.00 23.71     0.131 A 
HETATM   21  C4A ZID A 300     -23.807  28.185 -12.366  1.00 23.66     0.142 A 
HETATM   22  N1A ZID A 300     -22.533  30.359 -11.435  1.00 27.06    -0.337 N 
HETATM   23  C2A ZID A 300     -23.880  30.259 -11.359  1.00 25.81     0.183 A 
ATOM     24  H1A ZID A 300     -22.067  31.178 -11.045  1.00  0.00     0.168 HD
HETATM   25  N3A ZID A 300     -24.510  29.179 -11.805  1.00 26.02    -0.336 N 
ATOM     26  H3A ZID A 300     -25.524  29.105 -11.720  1.00  0.00     0.168 HD
BRANCH  20  27
HETATM   27  N6A ZID A 300     -20.461  29.541 -12.110  1.00 26.06    -0.383 N 
ATOM     28 2H6A ZID A 300     -20.025  30.428 -11.856  1.00  0.00     0.157 HD
ATOM     29 1H6A ZID A 300     -19.862  28.773 -12.412  1.00  0.00     0.157 HD
ENDBRANCH  20  27
ENDBRANCH  12  15
BRANCH  13  30
HETATM   30  O2B ZID A 300     -25.328  25.420 -15.146  1.00 34.28    -0.388 OA
ATOM     31  H2B ZID A 300     -25.292  26.334 -15.403  1.00  0.00     0.210 HD
ENDBRANCH  13  30
BRANCH  14  32
HETATM   32  O3B ZID A 300     -27.859  25.395 -14.520  1.00 26.39    -0.390 OA
ATOM     33  H3B ZID A 300     -27.299  25.570 -15.267  1.00  0.00     0.210 HD
ENDBRANCH  14  32
ENDBRANCH   9  10
ENDBRANCH   8   9
ENDBRANCH   5   8
ENDBRANCH   4   5
ENDBRANCH   1   4
BRANCH   1  34
HETATM   34  O5D ZID A 300     -23.947  21.959 -12.489  1.00 27.38    -0.287 OA
BRANCH  34  35
HETATM   35  C5D ZID A 300     -22.641  22.523 -12.433  1.00 26.32     0.216 C 
BRANCH  35  36
HETATM   36  C4D ZID A 300     -21.820  21.994 -13.611  1.00 26.54     0.180 C 
HETATM   37  O4D ZID A 300     -21.301  23.187 -14.279  1.00 26.70    -0.353 OA
HETATM   38  C1D ZID A 300     -19.949  22.957 -14.536  1.00 24.37     0.259 C 
HETATM   39  C2D ZID A 300     -19.498  22.131 -13.315  1.00 23.83     0.198 C 
HETATM   40  C3D ZID A 300     -20.614  21.132 -13.166  1.00 24.97     0.182 C 
BRANCH  38  41
HETATM   41  N1N ZID A 300     -19.072  24.101 -14.613  1.00 25.28    -0.336 N 
HETATM   42  C2N ZID A 300     -18.799  24.838 -13.504  1.00 22.44     0.111 A 
HETATM   43  C3N ZID A 300     -17.919  25.848 -13.600  1.00 25.89     0.056 A 
HETATM   44  C4N ZID A 300     -17.345  26.036 -14.872  1.00 26.60    -0.007 A 
HETATM   45  C5N ZID A 300     -17.562  25.215 -15.948  1.00 27.45     0.028 A 
HETATM   46  C6N ZID A 300     -18.475  24.246 -15.776  1.00 24.23     0.094 A 
BRANCH  43  47
HETATM   47  C7N ZID A 300     -17.681  26.793 -12.414  1.00 28.02     0.251 C 
HETATM   48  O7N ZID A 300     -18.118  27.959 -12.416  1.00 26.84    -0.268 OA
HETATM   49  N7N ZID A 300     -16.769  26.476 -11.512  1.00 23.44    -0.366 N 
ATOM     50 2H7N ZID A 300     -16.411  25.522 -11.510  1.00  0.00     0.159 HD
ATOM     51 1H7N ZID A 300     -16.611  27.105 -10.724  1.00  0.00     0.159 HD
ENDBRANCH  43  47
BRANCH  44  52
HETATM   52  C7Z ZID A 300     -16.203  26.774 -14.779  1.00 27.75     0.185 C 
BRANCH  52  53
HETATM   53  O7Z ZID A 300     -15.822  26.187 -16.143  1.00 23.71    -0.386 OA
ATOM     54  H7Z ZID A 300     -16.688  26.447 -16.433  1.00  0.00     0.210 HD
ENDBRANCH  52  53
BRANCH  52  55
HETATM   55  C4Z ZID A 300     -15.865  28.123 -15.264  1.00 23.40    -0.023 A 
HETATM   56  C3Z ZID A 300     -16.207  28.546 -16.526  1.00 23.67     0.027 A 
HETATM   57  C2Z ZID A 300     -15.994  29.883 -16.829  1.00 22.98     0.088 A 
HETATM   58  N1Z ZID A 300     -15.507  30.761 -15.916  1.00 25.57    -0.375 N 
HETATM   59  C6Z ZID A 300     -15.233  30.392 -14.645  1.00 26.04     0.088 A 
ATOM     60  H1Z ZID A 300     -15.343  31.727 -16.198  1.00  0.00     0.164 HD
HETATM   61  C5Z ZID A 300     -15.429  29.074 -14.296  1.00 24.83     0.027 A 
ENDBRANCH  52  55
ENDBRANCH  44  52
ENDBRANCH  38  41
BRANCH  39  62
HETATM   62  O2D ZID A 300     -18.210  21.445 -13.390  1.00 23.60    -0.388 OA
ATOM     63  H2D ZID A 300     -18.059  20.941 -12.599  1.00  0.00     0.210 HD
ENDBRANCH  39  62
BRANCH  40  64
HETATM   64  O3D ZID A 300     -20.366  20.070 -14.139  1.00 26.13    -0.390 OA
ATOM     65  H3D ZID A 300     -19.614  20.289 -14.679  1.00  0.00     0.210 HD
ENDBRANCH  40  64
ENDBRANCH  35  36
ENDBRANCH  34  35
ENDBRANCH   1  34
TORSDOF 19
ENDMDL
MODEL 3
REMARK VINA RESULT:      -9.4      1.803      2.417
REMARK  19 active torsions:
REMARK  status: ('A' for Active; 'I' for Inactive)
REMARK    1  A    between atoms: PA_1  and  O5B_4 
REMARK    2  A    between atoms: PA_1  and  O3_30 
REMARK    3  A    between atoms: O5B_4  and  C5B_5 
REMARK    4  A    between atoms: C5B_5  and  C4B_6 
REMARK    5  A    between atoms: C3B_8  and  O3B_9 
REMARK    6  A    between atoms: C2B_11  and  O2B_12 
REMARK    7  A    between atoms: C1B_14  and  N9A_15 
REMARK    8  A    between atoms: C6A_20  and  N6A_21 
REMARK    9  A    between atoms: O3_30  and  PN_31 
REMARK   10  A    between atoms: PN_31  and  O5D_34 
REMARK   11  A    between atoms: O5D_34  and  C5D_35 
REMARK   12  A    between atoms: C5D_35  and  C4D_36 
REMARK   13  A    between atoms: C3D_38  and  O3D_39 
REMARK   14  A    between atoms: C2D_41  and  O2D_42 
REMARK   15  A    between atoms: C1D_44  and  N1N_45 
REMARK   16  A    between atoms: C3N_47  and  C7N_48 
REMARK       I    between atoms: C7N_48  and  N7N_50 
REMARK   17  A    between atoms: C4N_53  and  C7Z_56 
REMARK   18  A    between atoms: C7Z_56  and  O7Z_57 
REMARK   19  A    between atoms: C7Z_56  and  C4Z_63 
ROOT
HETATM    1  PN  ZID A 300     -23.153  22.018 -15.494  1.00 26.51     0.417 P 
HETATM    2  O1N ZID A 300     -23.119  22.789 -16.774  1.00 30.48    -0.624 OA
HETATM    3  O2N ZID A 300     -22.996  20.525 -15.457  1.00 28.40    -0.624 OA
ENDROOT
BRANCH   1   4
HETATM    4  O3  ZID A 300     -24.502  22.541 -14.736  1.00 30.29    -0.180 OA
BRANCH   4   5
HETATM    5  PA  ZID A 300     -26.067  22.261 -15.166  1.00 28.62     0.417 P 
HETATM    6  O1A ZID A 300     -26.384  23.408 -16.093  1.00 28.37    -0.624 OA
HETATM    7  O2A ZID A 300     -26.284  20.828 -15.539  1.00 30.19    -0.624 OA
BRANCH   5   8
HETATM    8  O5B ZID A 300     -26.822  22.415 -13.772  1.00 29.52    -0.287 OA
BRANCH   8   9
HETATM    9  C5B ZID A 300     -26.816  21.408 -12.778  1.00 27.76     0.216 C 
BRANCH   9  10
HETATM   10  C4B ZID A 300     -26.385  22.170 -11.546  1.00 27.48     0.180 C 
HETATM   11  O4B ZID A 300     -25.770  23.386 -11.953  1.00 27.81    -0.353 OA
HETATM   12  C1B ZID A 300     -26.065  24.314 -10.945  1.00 28.20     0.262 C 
HETATM   13  C2B ZID A 300     -27.549  24.067 -10.645  1.00 28.50     0.198 C 
HETATM   14  C3B ZID A 300     -27.585  22.558 -10.651  1.00 25.42     0.182 C 
BRANCH  12  15
HETATM   15  N9A ZID A 300     -25.852  25.719 -11.285  1.00 26.08    -0.297 N 
HETATM   16  C8A ZID A 300     -26.568  26.761 -10.830  1.00 24.53     0.188 A 
HETATM   17  N7A ZID A 300     -25.999  27.866 -11.291  1.00 23.35    -0.346 N 
HETATM   18  C5A ZID A 300     -24.884  27.518 -11.989  1.00 25.38     0.122 A 
ATOM     19  H7A ZID A 300     -26.340  28.817 -11.147  1.00  0.00     0.167 HD
HETATM   20  C6A ZID A 300     -23.915  28.239 -12.669  1.00 23.71     0.131 A 
HETATM   21  C4A ZID A 300     -24.796  26.158 -11.955  1.00 23.66     0.142 A 
HETATM   22  N1A ZID A 300     -22.948  27.567 -13.302  1.00 27.06    -0.337 N 
HETATM   23  C2A ZID A 300     -22.875  26.217 -13.230  1.00 25.81     0.183 A 
ATOM     24  H1A ZID A 300     -22.255  28.079 -13.846  1.00  0.00     0.168 HD
HETATM   25  N3A ZID A 300     -23.796  25.519 -12.578  1.00 26.02    -0.336 N 
ATOM     26  H3A ZID A 300     -23.744  24.500 -12.551  1.00  0.00     0.168 HD
BRANCH  20  27
HETATM   27  N6A ZID A 300     -23.944  29.590 -12.726  1.00 26.06    -0.383 N 
ATOM     28 2H6A ZID A 300     -23.770  30.137 -11.883  1.00  0.00     0.157 HD
ATOM     29 1H6A ZID A 300     -24.115  30.086 -13.601  1.00  0.00     0.157 HD
ENDBRANCH  20  27
ENDBRANCH  12  15
BRANCH  13  30
HETATM   30  O2B ZID A 300     -27.935  24.627  -9.380  1.00 34.28    -0.388 OA
ATOM     31  H2B ZID A 300     -27.224  25.089  -8.950  1.00  0.00     0.210 HD
ENDBRANCH  13  30
BRANCH  14  32
HETATM   32  O3B ZID A 300     -27.317  22.094  -9.347  1.00 26.39    -0.390 OA
ATOM     33  H3B ZID A 300     -26.973  21.211  -9.418  1.00  0.00     0.210 HD
ENDBRANCH  14  32
ENDBRANCH   9  10
ENDBRANCH   8   9
ENDBRANCH   5   8
ENDBRANCH   4   5
ENDBRANCH   1   4
BRANCH   1  34
HETATM   34  O5D ZID A 300     -22.092  22.588 -14.460  1.00 27.38    -0.287 OA
BRANCH  34  35
HETATM   35  C5D ZID A 300     -21.940  22.075 -13.140  1.00 26.32     0.216 C 
BRANCH  35  36
HETATM   36  C4D ZID A 300     -20.481  21.663 -12.932  1.00 26.54     0.180 C 
HETATM   37  O4D ZID A 300     -19.775  22.155 -14.114  1.00 26.70    -0.353 OA
HETATM   38  C1D ZID A 300     -18.611  22.779 -13.665  1.00 24.37     0.259 C 
HETATM   39  C2D ZID A 300     -19.051  23.422 -12.336  1.00 23.83     0.198 C 
HETATM   40  C3D ZID A 300     -19.841  22.319 -11.685  1.00 24.97     0.182 C 
BRANCH  38  41
HETATM   41  N1N ZID A 300     -18.056  23.837 -14.477  1.00 25.28    -0.336 N 
HETATM   42  C2N ZID A 300     -17.613  24.987 -13.904  1.00 22.44     0.111 A 
HETATM   43  C3N ZID A 300     -17.034  25.914 -14.683  1.00 25.89     0.056 A 
HETATM   44  C4N ZID A 300     -16.931  25.585 -16.049  1.00 26.60    -0.007 A 
HETATM   45  C5N ZID A 300     -17.294  24.376 -16.582  1.00 27.45     0.028 A 
HETATM   46  C6N ZID A 300     -17.889  23.515 -15.742  1.00 24.23     0.094 A 
BRANCH  43  47
HETATM   47  C7N ZID A 300     -16.642  27.284 -14.110  1.00 28.02     0.251 C 
HETATM   48  O7N ZID A 300     -15.613  27.429 -13.424  1.00 26.84    -0.268 OA
HETATM   49  N7N ZID A 300     -17.537  28.255 -14.095  1.00 23.44    -0.366 N 
ATOM     50 2H7N ZID A 300     -18.380  28.136 -14.657  1.00  0.00     0.159 HD
ATOM     51 1H7N ZID A 300     -17.277  29.165 -13.714  1.00  0.00     0.159 HD
ENDBRANCH  43  47
BRANCH  44  52
HETATM   52  C7Z ZID A 300     -15.993  26.363 -16.661  1.00 27.75     0.185 C 
BRANCH  52  53
HETATM   53  O7Z ZID A 300     -15.062  25.148 -16.574  1.00 23.71    -0.386 OA
ATOM     54  H7Z ZID A 300     -14.957  25.233 -17.514  1.00  0.00     0.210 HD
ENDBRANCH  52  53
BRANCH  52  55
HETATM   55  C4Z ZID A 300     -15.637  26.535 -18.079  1.00 23.40    -0.023 A 
HETATM   56  C3Z ZID A 300     -15.482  27.779 -18.642  1.00 23.67     0.027 A 
HETATM   57  C2Z ZID A 300     -14.985  27.834 -19.936  1.00 22.98     0.088 A 
HETATM   58  N1Z ZID A 300     -14.622  26.719 -20.618  1.00 25.57    -0.375 N 
HETATM   59  C6Z ZID A 300     -14.691  25.488 -20.065  1.00 26.04     0.088 A 
ATOM     60  H1Z ZID A 300     -14.288  26.813 -21.578  1.00  0.00     0.164 HD
HETATM   61  C5Z ZID A 300     -15.179  25.382 -18.782  1.00 24.83     0.027 A 
ENDBRANCH  52  55
ENDBRANCH  44  52
ENDBRANCH  38  41
BRANCH  39  62
HETATM   62  O2D ZID A 300     -18.010  23.902 -11.429  1.00 23.60    -0.388 OA
ATOM     63  H2D ZID A 300     -17.863  23.273 -10.733  1.00  0.00     0.210 HD
ENDBRANCH  39  62
BRANCH  40  64
HETATM   64  O3D ZID A 300     -18.875  21.408 -11.074  1.00 26.13    -0.390 OA
ATOM     65  H3D ZID A 300     -19.304  20.600 -10.815  1.00  0.00     0.210 HD
ENDBRANCH  40  64
ENDBRANCH  35  36
ENDBRANCH  34  35
ENDBRANCH   1  34
TORSDOF 19
ENDMDL
MODEL 4
REMARK VINA RESULT:      -9.3      2.499      4.177
REMARK  19 active torsions:
REMARK  status: ('A' for Active; 'I' for Inactive)
REMARK    1  A    between atoms: PA_1  and  O5B_4 
REMARK    2  A    between atoms: PA_1  and  O3_30 
REMARK    3  A    between atoms: O5B_4  and  C5B_5 
REMARK    4  A    between atoms: C5B_5  and  C4B_6 
REMARK    5  A    between atoms: C3B_8  and  O3B_9 
REMARK    6  A    between atoms: C2B_11  and  O2B_12 
REMARK    7  A    between atoms: C1B_14  and  N9A_15 
REMARK    8  A    between atoms: C6A_20  and  N6A_21 
REMARK    9  A    between atoms: O3_30  and  PN_31 
REMARK   10  A    between atoms: PN_31  and  O5D_34 
REMARK   11  A    between atoms: O5D_34  and  C5D_35 
REMARK   12  A    between atoms: C5D_35  and  C4D_36 
REMARK   13  A    between atoms: C3D_38  and  O3D_39 
REMARK   14  A    between atoms: C2D_41  and  O2D_42 
REMARK   15  A    between atoms: C1D_44  and  N1N_45 
REMARK   16  A    between atoms: C3N_47  and  C7N_48 
REMARK       I    between atoms: C7N_48  and  N7N_50 
REMARK   17  A    between atoms: C4N_53  and  C7Z_56 
REMARK   18  A    between atoms: C7Z_56  and  O7Z_57 
REMARK   19  A    between atoms: C7Z_56  and  C4Z_63 
ROOT
HETATM    1  PN  ZID A 300     -23.395  22.098 -12.841  1.00 26.51     0.417 P 
HETATM    2  O1N ZID A 300     -24.042  21.867 -14.168  1.00 30.48    -0.624 OA
HETATM    3  O2N ZID A 300     -24.164  22.018 -11.553  1.00 28.40    -0.624 OA
ENDROOT
BRANCH   1   4
HETATM    4  O3  ZID A 300     -22.587  23.507 -13.018  1.00 30.29    -0.180 OA
BRANCH   4   5
HETATM    5  PA  ZID A 300     -22.573  24.498 -14.333  1.00 28.62     0.417 P 
HETATM    6  O1A ZID A 300     -21.208  24.265 -14.931  1.00 28.37    -0.624 OA
HETATM    7  O2A ZID A 300     -23.839  24.377 -15.123  1.00 30.19    -0.624 OA
BRANCH   5   8
HETATM    8  O5B ZID A 300     -22.675  25.937 -13.659  1.00 29.52    -0.287 OA
BRANCH   8   9
HETATM    9  C5B ZID A 300     -23.567  26.937 -14.112  1.00 27.76     0.216 C 
BRANCH   9  10
HETATM   10  C4B ZID A 300     -24.571  27.011 -12.985  1.00 27.48     0.180 C 
HETATM   11  O4B ZID A 300     -25.615  26.079 -13.241  1.00 27.81    -0.353 OA
HETATM   12  C1B ZID A 300     -26.048  25.641 -11.983  1.00 28.20     0.262 C 
HETATM   13  C2B ZID A 300     -24.744  25.401 -11.211  1.00 28.50     0.198 C 
HETATM   14  C3B ZID A 300     -23.951  26.617 -11.624  1.00 25.42     0.182 C 
BRANCH  12  15
HETATM   15  N9A ZID A 300     -26.864  24.429 -11.971  1.00 26.08    -0.297 N 
HETATM   16  C8A ZID A 300     -27.583  23.968 -10.935  1.00 24.53     0.188 A 
HETATM   17  N7A ZID A 300     -28.256  22.906 -11.356  1.00 23.35    -0.346 N 
HETATM   18  C5A ZID A 300     -28.004  22.737 -12.683  1.00 25.38     0.122 A 
ATOM     19  H7A ZID A 300     -28.859  22.316 -10.784  1.00  0.00     0.167 HD
HETATM   20  C6A ZID A 300     -28.431  21.819 -13.630  1.00 23.71     0.131 A 
HETATM   21  C4A ZID A 300     -27.140  23.722 -13.059  1.00 23.66     0.142 A 
HETATM   22  N1A ZID A 300     -27.946  21.913 -14.872  1.00 27.06    -0.337 N 
HETATM   23  C2A ZID A 300     -27.107  22.917 -15.219  1.00 25.81     0.183 A 
ATOM     24  H1A ZID A 300     -28.212  21.217 -15.569  1.00  0.00     0.168 HD
HETATM   25  N3A ZID A 300     -26.696  23.802 -14.320  1.00 26.02    -0.336 N 
ATOM     26  H3A ZID A 300     -26.044  24.540 -14.589  1.00  0.00     0.168 HD
BRANCH  20  27
HETATM   27  N6A ZID A 300     -29.297  20.828 -13.319  1.00 26.06    -0.383 N 
ATOM     28 2H6A ZID A 300     -29.876  20.904 -12.483  1.00  0.00     0.157 HD
ATOM     29 1H6A ZID A 300     -29.406  20.005 -13.913  1.00  0.00     0.157 HD
ENDBRANCH  20  27
ENDBRANCH  12  15
BRANCH  13  30
HETATM   30  O2B ZID A 300     -24.970  25.340  -9.794  1.00 34.28    -0.388 OA
ATOM     31  H2B ZID A 300     -24.882  26.186  -9.370  1.00  0.00     0.210 HD
ENDBRANCH  13  30
BRANCH  14  32
HETATM   32  O3B ZID A 300     -24.216  27.660 -10.713  1.00 26.39    -0.390 OA
ATOM     33  H3B ZID A 300     -23.728  27.481  -9.918  1.00  0.00     0.210 HD
ENDBRANCH  14  32
ENDBRANCH   9  10
ENDBRANCH   8   9
ENDBRANCH   5   8
ENDBRANCH   4   5
ENDBRANCH   1   4
BRANCH   1  34
HETATM   34  O5D ZID A 300     -22.136  21.151 -12.650  1.00 27.38    -0.287 OA
BRANCH  34  35
HETATM   35  C5D ZID A 300     -21.218  20.857 -13.698  1.00 26.32     0.216 C 
BRANCH  35  36
HETATM   36  C4D ZID A 300     -19.792  20.941 -13.147  1.00 26.54     0.180 C 
HETATM   37  O4D ZID A 300     -19.024  21.624 -14.187  1.00 26.70    -0.353 OA
HETATM   38  C1D ZID A 300     -18.250  22.596 -13.552  1.00 24.37     0.259 C 
HETATM   39  C2D ZID A 300     -19.163  23.075 -12.407  1.00 23.83     0.198 C 
HETATM   40  C3D ZID A 300     -19.696  21.782 -11.851  1.00 24.97     0.182 C 
BRANCH  38  41
HETATM   41  N1N ZID A 300     -17.883  23.768 -14.311  1.00 25.28    -0.336 N 
HETATM   42  C2N ZID A 300     -17.558  24.926 -13.680  1.00 22.44     0.111 A 
HETATM   43  C3N ZID A 300     -17.149  25.971 -14.417  1.00 25.89     0.056 A 
HETATM   44  C4N ZID A 300     -17.083  25.748 -15.806  1.00 26.60    -0.007 A 
HETATM   45  C5N ZID A 300     -17.320  24.539 -16.407  1.00 27.45     0.028 A 
HETATM   46  C6N ZID A 300     -17.750  23.555 -15.603  1.00 24.23     0.094 A 
BRANCH  43  47
HETATM   47  C7N ZID A 300     -16.902  27.340 -13.766  1.00 28.02     0.251 C 
HETATM   48  O7N ZID A 300     -15.793  27.640 -13.286  1.00 26.84    -0.268 OA
HETATM   49  N7N ZID A 300     -17.937  28.098 -13.451  1.00 23.44    -0.366 N 
ATOM     50 2H7N ZID A 300     -18.845  27.853 -13.844  1.00  0.00     0.159 HD
ATOM     51 1H7N ZID A 300     -17.773  29.007 -13.018  1.00  0.00     0.159 HD
ENDBRANCH  43  47
BRANCH  44  52
HETATM   52  C7Z ZID A 300     -16.290  26.681 -16.405  1.00 27.75     0.185 C 
BRANCH  52  53
HETATM   53  O7Z ZID A 300     -15.099  25.866 -15.888  1.00 23.71    -0.386 OA
ATOM     54  H7Z ZID A 300     -15.379  25.184 -16.488  1.00  0.00     0.210 HD
ENDBRANCH  52  53
BRANCH  52  55
HETATM   55  C4Z ZID A 300     -15.676  26.731 -17.743  1.00 23.40    -0.023 A 
HETATM   56  C3Z ZID A 300     -15.367  25.589 -18.442  1.00 23.67     0.027 A 
HETATM   57  C2Z ZID A 300     -14.948  25.742 -19.756  1.00 22.98     0.088 A 
HETATM   58  N1Z ZID A 300     -14.880  26.957 -20.356  1.00 25.57    -0.375 N 
HETATM   59  C6Z ZID A 300     -15.250  28.090 -19.719  1.00 26.04     0.088 A 
ATOM     60  H1Z ZID A 300     -14.539  27.016 -21.316  1.00  0.00     0.164 HD
HETATM   61  C5Z ZID A 300     -15.673  27.990 -18.412  1.00 24.83     0.027 A 
ENDBRANCH  52  55
ENDBRANCH  44  52
ENDBRANCH  38  41
BRANCH  39  62
HETATM   62  O2D ZID A 300     -18.564  23.876 -11.341  1.00 23.60    -0.388 OA
ATOM     63  H2D ZID A 300     -19.058  23.776 -10.537  1.00  0.00     0.210 HD
ENDBRANCH  39  62
BRANCH  40  64
HETATM   64  O3D ZID A 300     -18.662  21.239 -10.973  1.00 26.13    -0.390 OA
ATOM     65  H3D ZID A 300     -18.988  20.472 -10.516  1.00  0.00     0.210 HD
ENDBRANCH  40  64
ENDBRANCH  35  36
ENDBRANCH  34  35
ENDBRANCH   1  34
TORSDOF 19
ENDMDL
MODEL 5
REMARK VINA RESULT:      -9.3      1.868      2.517
REMARK  19 active torsions:
REMARK  status: ('A' for Active; 'I' for Inactive)
REMARK    1  A    between atoms: PA_1  and  O5B_4 
REMARK    2  A    between atoms: PA_1  and  O3_30 
REMARK    3  A    between atoms: O5B_4  and  C5B_5 
REMARK    4  A    between atoms: C5B_5  and  C4B_6 
REMARK    5  A    between atoms: C3B_8  and  O3B_9 
REMARK    6  A    between atoms: C2B_11  and  O2B_12 
REMARK    7  A    between atoms: C1B_14  and  N9A_15 
REMARK    8  A    between atoms: C6A_20  and  N6A_21 
REMARK    9  A    between atoms: O3_30  and  PN_31 
REMARK   10  A    between atoms: PN_31  and  O5D_34 
REMARK   11  A    between atoms: O5D_34  and  C5D_35 
REMARK   12  A    between atoms: C5D_35  and  C4D_36 
REMARK   13  A    between atoms: C3D_38  and  O3D_39 
REMARK   14  A    between atoms: C2D_41  and  O2D_42 
REMARK   15  A    between atoms: C1D_44  and  N1N_45 
REMARK   16  A    between atoms: C3N_47  and  C7N_48 
REMARK       I    between atoms: C7N_48  and  N7N_50 
REMARK   17  A    between atoms: C4N_53  and  C7Z_56 
REMARK   18  A    between atoms: C7Z_56  and  O7Z_57 
REMARK   19  A    between atoms: C7Z_56  and  C4Z_63 
ROOT
HETATM    1  PN  ZID A 300     -23.051  22.350 -13.036  1.00 26.51     0.417 P 
HETATM    2  O1N ZID A 300     -24.315  21.732 -12.532  1.00 30.48    -0.624 OA
HETATM    3  O2N ZID A 300     -22.648  23.751 -12.674  1.00 28.40    -0.624 OA
ENDROOT
BRANCH   1   4
HETATM    4  O3  ZID A 300     -23.081  22.088 -14.648  1.00 30.29    -0.180 OA
BRANCH   4   5
HETATM    5  PA  ZID A 300     -22.983  23.209 -15.850  1.00 28.62     0.417 P 
HETATM    6  O1A ZID A 300     -21.684  23.919 -15.559  1.00 28.37    -0.624 OA
HETATM    7  O2A ZID A 300     -23.302  22.611 -17.184  1.00 30.19    -0.624 OA
BRANCH   5   8
HETATM    8  O5B ZID A 300     -24.237  24.139 -15.533  1.00 29.52    -0.287 OA
BRANCH   8   9
HETATM    9  C5B ZID A 300     -25.574  23.683 -15.620  1.00 27.76     0.216 C 
BRANCH   9  10
HETATM   10  C4B ZID A 300     -26.111  23.990 -14.241  1.00 27.48     0.180 C 
HETATM   11  O4B ZID A 300     -25.336  25.037 -13.671  1.00 27.81    -0.353 OA
HETATM   12  C1B ZID A 300     -26.216  25.758 -12.854  1.00 28.20     0.262 C 
HETATM   13  C2B ZID A 300     -27.484  25.887 -13.708  1.00 28.50     0.198 C 
HETATM   14  C3B ZID A 300     -27.572  24.494 -14.284  1.00 25.42     0.182 C 
BRANCH  12  15
HETATM   15  N9A ZID A 300     -25.762  27.082 -12.432  1.00 26.08    -0.297 N 
HETATM   16  C8A ZID A 300     -26.497  28.002 -11.787  1.00 24.53     0.188 A 
HETATM   17  N7A ZID A 300     -25.698  29.019 -11.498  1.00 23.35    -0.346 N 
HETATM   18  C5A ZID A 300     -24.439  28.708 -11.912  1.00 25.38     0.122 A 
ATOM     19  H7A ZID A 300     -25.978  29.888 -11.043  1.00  0.00     0.167 HD
HETATM   20  C6A ZID A 300     -23.223  29.371 -11.864  1.00 23.71     0.131 A 
HETATM   21  C4A ZID A 300     -24.496  27.470 -12.479  1.00 23.66     0.142 A 
HETATM   22  N1A ZID A 300     -22.155  28.785 -12.415  1.00 27.06    -0.337 N 
HETATM   23  C2A ZID A 300     -22.240  27.545 -12.951  1.00 25.81     0.183 A 
ATOM     24  H1A ZID A 300     -21.263  29.280 -12.431  1.00  0.00     0.168 HD
HETATM   25  N3A ZID A 300     -23.399  26.900 -12.997  1.00 26.02    -0.336 N 
ATOM     26  H3A ZID A 300     -23.454  25.976 -13.425  1.00  0.00     0.168 HD
BRANCH  20  27
HETATM   27  N6A ZID A 300     -23.103  30.596 -11.302  1.00 26.06    -0.383 N 
ATOM     28 2H6A ZID A 300     -22.918  30.679 -10.302  1.00  0.00     0.157 HD
ATOM     29 1H6A ZID A 300     -23.172  31.449 -11.857  1.00  0.00     0.157 HD
ENDBRANCH  20  27
ENDBRANCH  12  15
BRANCH  13  30
HETATM   30  O2B ZID A 300     -28.628  26.233 -12.911  1.00 34.28    -0.388 OA
ATOM     31  H2B ZID A 300     -28.569  25.906 -12.021  1.00  0.00     0.210 HD
ENDBRANCH  13  30
BRANCH  14  32
HETATM   32  O3B ZID A 300     -28.330  23.690 -13.407  1.00 26.39    -0.390 OA
ATOM     33  H3B ZID A 300     -29.227  23.686 -13.720  1.00  0.00     0.210 HD
ENDBRANCH  14  32
ENDBRANCH   9  10
ENDBRANCH   8   9
ENDBRANCH   5   8
ENDBRANCH   4   5
ENDBRANCH   1   4
BRANCH   1  34
HETATM   34  O5D ZID A 300     -21.797  21.440 -12.694  1.00 27.38    -0.287 OA
BRANCH  34  35
HETATM   35  C5D ZID A 300     -20.835  21.044 -13.666  1.00 26.32     0.216 C 
BRANCH  35  36
HETATM   36  C4D ZID A 300     -19.435  21.174 -13.060  1.00 26.54     0.180 C 
HETATM   37  O4D ZID A 300     -18.619  21.776 -14.114  1.00 26.70    -0.353 OA
HETATM   38  C1D ZID A 300     -17.873  22.795 -13.522  1.00 24.37     0.259 C 
HETATM   39  C2D ZID A 300     -18.836  23.360 -12.460  1.00 23.83     0.198 C 
HETATM   40  C3D ZID A 300     -19.396  22.112 -11.830  1.00 24.97     0.182 C 
BRANCH  38  41
HETATM   41  N1N ZID A 300     -17.471  23.906 -14.352  1.00 25.28    -0.336 N 
HETATM   42  C2N ZID A 300     -16.774  24.946 -13.824  1.00 22.44     0.111 A 
HETATM   43  C3N ZID A 300     -16.352  25.923 -14.644  1.00 25.89     0.056 A 
HETATM   44  C4N ZID A 300     -16.671  25.756 -16.005  1.00 26.60    -0.007 A 
HETATM   45  C5N ZID A 300     -17.286  24.647 -16.525  1.00 27.45     0.028 A 
HETATM   46  C6N ZID A 300     -17.700  23.731 -15.636  1.00 24.23     0.094 A 
BRANCH  43  47
HETATM   47  C7N ZID A 300     -15.683  27.184 -14.078  1.00 28.02     0.251 C 
HETATM   48  O7N ZID A 300     -14.475  27.197 -13.776  1.00 26.84    -0.268 OA
HETATM   49  N7N ZID A 300     -16.441  28.171 -13.638  1.00 23.44    -0.366 N 
ATOM     50 2H7N ZID A 300     -17.430  28.161 -13.886  1.00  0.00     0.159 HD
ATOM     51 1H7N ZID A 300     -15.997  29.009 -13.262  1.00  0.00     0.159 HD
ENDBRANCH  43  47
BRANCH  44  52
HETATM   52  C7Z ZID A 300     -15.874  26.540 -16.784  1.00 27.75     0.185 C 
BRANCH  52  53
HETATM   53  O7Z ZID A 300     -14.754  25.535 -16.490  1.00 23.71    -0.386 OA
ATOM     54  H7Z ZID A 300     -14.226  26.284 -16.240  1.00  0.00     0.210 HD
ENDBRANCH  52  53
BRANCH  52  55
HETATM   55  C4Z ZID A 300     -15.546  26.485 -18.219  1.00 23.40    -0.023 A 
HETATM   56  C3Z ZID A 300     -15.372  27.624 -18.968  1.00 23.67     0.027 A 
HETATM   57  C2Z ZID A 300     -14.904  27.468 -20.264  1.00 22.98     0.088 A 
HETATM   58  N1Z ZID A 300     -14.586  26.252 -20.776  1.00 25.57    -0.375 N 
HETATM   59  C6Z ZID A 300     -14.674  25.122 -20.040  1.00 26.04     0.088 A 
ATOM     60  H1Z ZID A 300     -14.272  26.190 -21.745  1.00  0.00     0.164 HD
HETATM   61  C5Z ZID A 300     -15.135  25.226 -18.746  1.00 24.83     0.027 A 
ENDBRANCH  52  55
ENDBRANCH  44  52
ENDBRANCH  38  41
BRANCH  39  62
HETATM   62  O2D ZID A 300     -18.284  24.242 -11.433  1.00 23.60    -0.388 OA
ATOM     63  H2D ZID A 300     -17.453  24.601 -11.719  1.00  0.00     0.210 HD
ENDBRANCH  39  62
BRANCH  40  64
HETATM   64  O3D ZID A 300     -18.403  21.642 -10.867  1.00 26.13    -0.390 OA
ATOM     65  H3D ZID A 300     -17.859  22.364 -10.576  1.00  0.00     0.210 HD
ENDBRANCH  40  64
ENDBRANCH  35  36
ENDBRANCH  34  35
ENDBRANCH   1  34
TORSDOF 19
ENDMDL
MODEL 6
REMARK VINA RESULT:      -9.3      1.516      2.513
REMARK  19 active torsions:
REMARK  status: ('A' for Active; 'I' for Inactive)
REMARK    1  A    between atoms: PA_1  and  O5B_4 
REMARK    2  A    between atoms: PA_1  and  O3_30 
REMARK    3  A    between atoms: O5B_4  and  C5B_5 
REMARK    4  A    between atoms: C5B_5  and  C4B_6 
REMARK    5  A    between atoms: C3B_8  and  O3B_9 
REMARK    6  A    between atoms: C2B_11  and  O2B_12 
REMARK    7  A    between atoms: C1B_14  and  N9A_15 
REMARK    8  A    between atoms: C6A_20  and  N6A_21 
REMARK    9  A    between atoms: O3_30  and  PN_31 
REMARK   10  A    between atoms: PN_31  and  O5D_34 
REMARK   11  A    between atoms: O5D_34  and  C5D_35 
REMARK   12  A    between atoms: C5D_35  and  C4D_36 
REMARK   13  A    between atoms: C3D_38  and  O3D_39 
REMARK   14  A    between atoms: C2D_41  and  O2D_42 
REMARK   15  A    between atoms: C1D_44  and  N1N_45 
REMARK   16  A    between atoms: C3N_47  and  C7N_48 
REMARK       I    between atoms: C7N_48  and  N7N_50 
REMARK   17  A    between atoms: C4N_53  and  C7Z_56 
REMARK   18  A    between atoms: C7Z_56  and  O7Z_57 
REMARK   19  A    between atoms: C7Z_56  and  C4Z_63 
ROOT
HETATM    1  PN  ZID A 300     -23.547  22.048 -12.785  1.00 26.51     0.417 P 
HETATM    2  O1N ZID A 300     -24.625  21.841 -13.800  1.00 30.48    -0.624 OA
HETATM    3  O2N ZID A 300     -22.793  20.900 -12.177  1.00 28.40    -0.624 OA
ENDROOT
BRANCH   1   4
HETATM    4  O3  ZID A 300     -24.217  23.037 -11.671  1.00 30.29    -0.180 OA
BRANCH   4   5
HETATM    5  PA  ZID A 300     -25.568  22.765 -10.770  1.00 28.62     0.417 P 
HETATM    6  O1A ZID A 300     -25.596  21.263 -10.629  1.00 28.37    -0.624 OA
HETATM    7  O2A ZID A 300     -25.641  23.694  -9.599  1.00 30.19    -0.624 OA
BRANCH   5   8
HETATM    8  O5B ZID A 300     -26.720  23.279 -11.742  1.00 29.52    -0.287 OA
BRANCH   8   9
HETATM    9  C5B ZID A 300     -27.597  24.337 -11.404  1.00 27.76     0.216 C 
BRANCH   9  10
HETATM   10  C4B ZID A 300     -27.262  25.380 -12.445  1.00 27.48     0.180 C 
HETATM   11  O4B ZID A 300     -26.143  26.133 -11.994  1.00 27.81    -0.353 OA
HETATM   12  C1B ZID A 300     -25.443  26.501 -13.150  1.00 28.20     0.262 C 
HETATM   13  C2B ZID A 300     -25.434  25.219 -13.994  1.00 28.50     0.198 C 
HETATM   14  C3B ZID A 300     -26.855  24.748 -13.796  1.00 25.42     0.182 C 
BRANCH  12  15
HETATM   15  N9A ZID A 300     -24.076  26.975 -12.950  1.00 26.08    -0.297 N 
HETATM   16  C8A ZID A 300     -22.958  26.380 -13.398  1.00 24.53     0.188 A 
HETATM   17  N7A ZID A 300     -21.938  27.171 -13.096  1.00 23.35    -0.346 N 
HETATM   18  C5A ZID A 300     -22.426  28.298 -12.509  1.00 25.38     0.122 A 
ATOM     19  H7A ZID A 300     -20.953  26.969 -13.273  1.00  0.00     0.167 HD
HETATM   20  C6A ZID A 300     -21.838  29.449 -12.008  1.00 23.71     0.131 A 
HETATM   21  C4A ZID A 300     -23.781  28.165 -12.446  1.00 23.66     0.142 A 
HETATM   22  N1A ZID A 300     -22.623  30.371 -11.443  1.00 27.06    -0.337 N 
HETATM   23  C2A ZID A 300     -23.968  30.220 -11.416  1.00 25.81     0.183 A 
ATOM     24  H1A ZID A 300     -22.203  31.201 -11.026  1.00  0.00     0.168 HD
HETATM   25  N3A ZID A 300     -24.540  29.123 -11.898  1.00 26.02    -0.336 N 
ATOM     26  H3A ZID A 300     -25.553  29.010 -11.850  1.00  0.00     0.168 HD
BRANCH  20  27
HETATM   27  N6A ZID A 300     -20.500  29.641 -12.054  1.00 26.06    -0.383 N 
ATOM     28 2H6A ZID A 300     -20.087  30.146 -12.838  1.00  0.00     0.157 HD
ATOM     29 1H6A ZID A 300     -19.885  29.312 -11.310  1.00  0.00     0.157 HD
ENDBRANCH  20  27
ENDBRANCH  12  15
BRANCH  13  30
HETATM   30  O2B ZID A 300     -25.126  25.492 -15.370  1.00 34.28    -0.388 OA
ATOM     31  H2B ZID A 300     -25.220  24.728 -15.927  1.00  0.00     0.210 HD
ENDBRANCH  13  30
BRANCH  14  32
HETATM   32  O3B ZID A 300     -27.665  25.319 -14.800  1.00 26.39    -0.390 OA
ATOM     33  H3B ZID A 300     -28.548  24.991 -14.681  1.00  0.00     0.210 HD
ENDBRANCH  14  32
ENDBRANCH   9  10
ENDBRANCH   8   9
ENDBRANCH   5   8
ENDBRANCH   4   5
ENDBRANCH   1   4
BRANCH   1  34
HETATM   34  O5D ZID A 300     -22.443  23.050 -13.326  1.00 27.38    -0.287 OA
BRANCH  34  35
HETATM   35  C5D ZID A 300     -21.500  22.700 -14.334  1.00 26.32     0.216 C 
BRANCH  35  36
HETATM   36  C4D ZID A 300     -20.220  22.195 -13.664  1.00 26.54     0.180 C 
HETATM   37  O4D ZID A 300     -19.173  22.366 -14.670  1.00 26.70    -0.353 OA
HETATM   38  C1D ZID A 300     -18.080  22.948 -14.027  1.00 24.37     0.259 C 
HETATM   39  C2D ZID A 300     -18.740  23.887 -12.999  1.00 23.83     0.198 C 
HETATM   40  C3D ZID A 300     -19.826  23.022 -12.417  1.00 24.97     0.182 C 
BRANCH  38  41
HETATM   41  N1N ZID A 300     -17.185  23.759 -14.818  1.00 25.28    -0.336 N 
HETATM   42  C2N ZID A 300     -15.996  23.261 -15.246  1.00 22.44     0.111 A 
HETATM   43  C3N ZID A 300     -15.227  24.019 -16.043  1.00 25.89     0.056 A 
HETATM   44  C4N ZID A 300     -15.753  25.283 -16.375  1.00 26.60    -0.007 A 
HETATM   45  C5N ZID A 300     -17.000  25.719 -16.012  1.00 27.45     0.028 A 
HETATM   46  C6N ZID A 300     -17.693  24.914 -15.194  1.00 24.23     0.094 A 
BRANCH  43  47
HETATM   47  C7N ZID A 300     -13.817  23.557 -16.440  1.00 28.02     0.251 C 
HETATM   48  O7N ZID A 300     -13.614  22.927 -17.494  1.00 26.84    -0.268 OA
HETATM   49  N7N ZID A 300     -12.857  23.571 -15.533  1.00 23.44    -0.366 N 
ATOM     50 2H7N ZID A 300     -13.023  24.087 -14.670  1.00  0.00     0.159 HD
ATOM     51 1H7N ZID A 300     -11.920  23.264 -15.796  1.00  0.00     0.159 HD
ENDBRANCH  43  47
BRANCH  44  52
HETATM   52  C7Z ZID A 300     -15.130  25.788 -17.477  1.00 27.75     0.185 C 
BRANCH  52  53
HETATM   53  O7Z ZID A 300     -16.249  25.132 -18.295  1.00 23.71    -0.386 OA
ATOM     54  H7Z ZID A 300     -15.583  24.936 -18.943  1.00  0.00     0.210 HD
ENDBRANCH  52  53
BRANCH  52  55
HETATM   55  C4Z ZID A 300     -15.322  27.044 -18.221  1.00 23.40    -0.023 A 
HETATM   56  C3Z ZID A 300     -15.676  28.213 -17.591  1.00 23.67     0.027 A 
HETATM   57  C2Z ZID A 300     -15.668  29.373 -18.351  1.00 22.98     0.088 A 
HETATM   58  N1Z ZID A 300     -15.289  29.380 -19.654  1.00 25.57    -0.375 N 
HETATM   59  C6Z ZID A 300     -14.862  28.261 -20.281  1.00 26.04     0.088 A 
ATOM     60  H1Z ZID A 300     -15.328  30.256 -20.176  1.00  0.00     0.164 HD
HETATM   61  C5Z ZID A 300     -14.852  27.083 -19.567  1.00 24.83     0.027 A 
ENDBRANCH  52  55
ENDBRANCH  44  52
ENDBRANCH  38  41
BRANCH  39  62
HETATM   62  O2D ZID A 300     -17.903  24.435 -11.933  1.00 23.60    -0.388 OA
ATOM     63  H2D ZID A 300     -16.987  24.394 -12.180  1.00  0.00     0.210 HD
ENDBRANCH  39  62
BRANCH  40  64
HETATM   64  O3D ZID A 300     -19.195  22.163 -11.419  1.00 26.13    -0.390 OA
ATOM     65  H3D ZID A 300     -18.886  22.682 -10.685  1.00  0.00     0.210 HD
ENDBRANCH  40  64
ENDBRANCH  35  36
ENDBRANCH  34  35
ENDBRANCH   1  34
TORSDOF 19
ENDMDL
MODEL 7
REMARK VINA RESULT:      -9.1      1.577      2.210
REMARK  19 active torsions:
REMARK  status: ('A' for Active; 'I' for Inactive)
REMARK    1  A    between atoms: PA_1  and  O5B_4 
REMARK    2  A    between atoms: PA_1  and  O3_30 
REMARK    3  A    between atoms: O5B_4  and  C5B_5 
REMARK    4  A    between atoms: C5B_5  and  C4B_6 
REMARK    5  A    between atoms: C3B_8  and  O3B_9 
REMARK    6  A    between atoms: C2B_11  and  O2B_12 
REMARK    7  A    between atoms: C1B_14  and  N9A_15 
REMARK    8  A    between atoms: C6A_20  and  N6A_21 
REMARK    9  A    between atoms: O3_30  and  PN_31 
REMARK   10  A    between atoms: PN_31  and  O5D_34 
REMARK   11  A    between atoms: O5D_34  and  C5D_35 
REMARK   12  A    between atoms: C5D_35  and  C4D_36 
REMARK   13  A    between atoms: C3D_38  and  O3D_39 
REMARK   14  A    between atoms: C2D_41  and  O2D_42 
REMARK   15  A    between atoms: C1D_44  and  N1N_45 
REMARK   16  A    between atoms: C3N_47  and  C7N_48 
REMARK       I    between atoms: C7N_48  and  N7N_50 
REMARK   17  A    between atoms: C4N_53  and  C7Z_56 
REMARK   18  A    between atoms: C7Z_56  and  O7Z_57 
REMARK   19  A    between atoms: C7Z_56  and  C4Z_63 
ROOT
HETATM    1  PN  ZID A 300     -21.036  20.786 -13.728  1.00 26.51     0.417 P 
HETATM    2  O1N ZID A 300     -20.478  19.808 -14.711  1.00 30.48    -0.624 OA
HETATM    3  O2N ZID A 300     -22.159  20.428 -12.796  1.00 28.40    -0.624 OA
ENDROOT
BRANCH   1   4
HETATM    4  O3  ZID A 300     -21.338  22.127 -14.610  1.00 30.29    -0.180 OA
BRANCH   4   5
HETATM    5  PA  ZID A 300     -22.697  22.479 -15.470  1.00 28.62     0.417 P 
HETATM    6  O1A ZID A 300     -22.410  23.849 -16.032  1.00 28.37    -0.624 OA
HETATM    7  O2A ZID A 300     -23.121  21.323 -16.321  1.00 30.19    -0.624 OA
BRANCH   5   8
HETATM    8  O5B ZID A 300     -23.802  22.541 -14.324  1.00 29.52    -0.287 OA
BRANCH   8   9
HETATM    9  C5B ZID A 300     -25.023  21.828 -14.393  1.00 27.76     0.216 C 
BRANCH   9  10
HETATM   10  C4B ZID A 300     -25.941  22.674 -13.542  1.00 27.48     0.180 C 
HETATM   11  O4B ZID A 300     -25.179  23.715 -12.943  1.00 27.81    -0.353 OA
HETATM   12  C1B ZID A 300     -26.051  24.805 -12.828  1.00 28.20     0.262 C 
HETATM   13  C2B ZID A 300     -26.780  24.833 -14.178  1.00 28.50     0.198 C 
HETATM   14  C3B ZID A 300     -27.045  23.361 -14.380  1.00 25.42     0.182 C 
BRANCH  12  15
HETATM   15  N9A ZID A 300     -25.428  26.102 -12.571  1.00 26.08    -0.297 N 
HETATM   16  C8A ZID A 300     -25.995  27.141 -11.937  1.00 24.53     0.188 A 
HETATM   17  N7A ZID A 300     -25.075  28.087 -11.820  1.00 23.35    -0.346 N 
HETATM   18  C5A ZID A 300     -23.905  27.614 -12.330  1.00 25.38     0.122 A 
ATOM     19  H7A ZID A 300     -25.218  29.013 -11.417  1.00  0.00     0.167 HD
HETATM   20  C6A ZID A 300     -22.632  28.147 -12.463  1.00 23.71     0.131 A 
HETATM   21  C4A ZID A 300     -24.143  26.349 -12.779  1.00 23.66     0.142 A 
HETATM   22  N1A ZID A 300     -21.693  27.411 -13.065  1.00 27.06    -0.337 N 
HETATM   23  C2A ZID A 300     -21.955  26.150 -13.480  1.00 25.81     0.183 A 
ATOM     24  H1A ZID A 300     -20.764  27.806 -13.214  1.00  0.00     0.168 HD
HETATM   25  N3A ZID A 300     -23.169  25.630 -13.353  1.00 26.02    -0.336 N 
ATOM     26  H3A ZID A 300     -23.361  24.686 -13.692  1.00  0.00     0.168 HD
BRANCH  20  27
HETATM   27  N6A ZID A 300     -22.333  29.392 -12.024  1.00 26.06    -0.383 N 
ATOM     28 2H6A ZID A 300     -21.369  29.630 -11.792  1.00  0.00     0.157 HD
ATOM     29 1H6A ZID A 300     -23.048  30.115 -11.938  1.00  0.00     0.157 HD
ENDBRANCH  20  27
ENDBRANCH  12  15
BRANCH  13  30
HETATM   30  O2B ZID A 300     -27.985  25.612 -14.115  1.00 34.28    -0.388 OA
ATOM     31  H2B ZID A 300     -27.878  26.485 -14.475  1.00  0.00     0.210 HD
ENDBRANCH  13  30
BRANCH  14  32
HETATM   32  O3B ZID A 300     -28.289  23.042 -13.795  1.00 26.39    -0.390 OA
ATOM     33  H3B ZID A 300     -28.122  22.714 -12.920  1.00  0.00     0.210 HD
ENDBRANCH  14  32
ENDBRANCH   9  10
ENDBRANCH   8   9
ENDBRANCH   5   8
ENDBRANCH   4   5
ENDBRANCH   1   4
BRANCH   1  34
HETATM   34  O5D ZID A 300     -19.890  21.386 -12.810  1.00 27.38    -0.287 OA
BRANCH  34  35
HETATM   35  C5D ZID A 300     -19.892  22.731 -12.342  1.00 26.32     0.216 C 
BRANCH  35  36
HETATM   36  C4D ZID A 300     -18.482  23.095 -11.871  1.00 26.54     0.180 C 
HETATM   37  O4D ZID A 300     -17.660  23.072 -13.080  1.00 26.70    -0.353 OA
HETATM   38  C1D ZID A 300     -16.875  24.225 -13.063  1.00 24.37     0.259 C 
HETATM   39  C2D ZID A 300     -17.806  25.272 -12.421  1.00 23.83     0.198 C 
HETATM   40  C3D ZID A 300     -18.398  24.515 -11.262  1.00 24.97     0.182 C 
BRANCH  38  41
HETATM   41  N1N ZID A 300     -16.447  24.769 -14.330  1.00 25.28    -0.336 N 
HETATM   42  C2N ZID A 300     -15.812  23.984 -15.239  1.00 22.44     0.111 A 
HETATM   43  C3N ZID A 300     -15.498  24.506 -16.436  1.00 25.89     0.056 A 
HETATM   44  C4N ZID A 300     -15.882  25.847 -16.635  1.00 26.60    -0.007 A 
HETATM   45  C5N ZID A 300     -16.611  26.583 -15.738  1.00 27.45     0.028 A 
HETATM   46  C6N ZID A 300     -16.860  25.997 -14.557  1.00 24.23     0.094 A 
BRANCH  43  47
HETATM   47  C7N ZID A 300     -14.661  23.706 -17.444  1.00 28.02     0.251 C 
HETATM   48  O7N ZID A 300     -15.057  23.514 -18.609  1.00 26.84    -0.268 OA
HETATM   49  N7N ZID A 300     -13.654  22.972 -17.005  1.00 23.44    -0.366 N 
ATOM     50 2H7N ZID A 300     -13.329  23.129 -16.051  1.00  0.00     0.159 HD
ATOM     51 1H7N ZID A 300     -13.098  22.440 -17.675  1.00  0.00     0.159 HD
ENDBRANCH  43  47
BRANCH  44  52
HETATM   52  C7Z ZID A 300     -15.903  26.148 -17.964  1.00 27.75     0.185 C 
BRANCH  52  53
HETATM   53  O7Z ZID A 300     -17.132  27.010 -17.655  1.00 23.71    -0.386 OA
ATOM     54  H7Z ZID A 300     -16.520  27.691 -17.401  1.00  0.00     0.210 HD
ENDBRANCH  52  53
BRANCH  52  55
HETATM   55  C4Z ZID A 300     -15.312  27.262 -18.726  1.00 23.40    -0.023 A 
HETATM   56  C3Z ZID A 300     -14.753  27.075 -19.967  1.00 23.67     0.027 A 
HETATM   57  C2Z ZID A 300     -14.377  28.208 -20.672  1.00 22.98     0.088 A 
HETATM   58  N1Z ZID A 300     -14.582  29.460 -20.190  1.00 25.57    -0.375 N 
HETATM   59  C6Z ZID A 300     -15.198  29.678 -19.007  1.00 26.04     0.088 A 
ATOM     60  H1Z ZID A 300     -14.261  30.260 -20.737  1.00  0.00     0.164 HD
HETATM   61  C5Z ZID A 300     -15.591  28.584 -18.270  1.00 24.83     0.027 A 
ENDBRANCH  52  55
ENDBRANCH  44  52
ENDBRANCH  38  41
BRANCH  39  62
HETATM   62  O2D ZID A 300     -17.215  26.525 -11.959  1.00 23.60    -0.388 OA
ATOM     63  H2D ZID A 300     -16.982  26.461 -11.040  1.00  0.00     0.210 HD
ENDBRANCH  39  62
BRANCH  40  64
HETATM   64  O3D ZID A 300     -17.410  24.546 -10.186  1.00 26.13    -0.390 OA
ATOM     65  H3D ZID A 300     -17.791  24.922  -9.401  1.00  0.00     0.210 HD
ENDBRANCH  40  64
ENDBRANCH  35  36
ENDBRANCH  34  35
ENDBRANCH   1  34
TORSDOF 19
ENDMDL
MODEL 8
REMARK VINA RESULT:      -9.1      2.221      3.795
REMARK  19 active torsions:
REMARK  status: ('A' for Active; 'I' for Inactive)
REMARK    1  A    between atoms: PA_1  and  O5B_4 
REMARK    2  A    between atoms: PA_1  and  O3_30 
REMARK    3  A    between atoms: O5B_4  and  C5B_5 
REMARK    4  A    between atoms: C5B_5  and  C4B_6 
REMARK    5  A    between atoms: C3B_8  and  O3B_9 
REMARK    6  A    between atoms: C2B_11  and  O2B_12 
REMARK    7  A    between atoms: C1B_14  and  N9A_15 
REMARK    8  A    between atoms: C6A_20  and  N6A_21 
REMARK    9  A    between atoms: O3_30  and  PN_31 
REMARK   10  A    between atoms: PN_31  and  O5D_34 
REMARK   11  A    between atoms: O5D_34  and  C5D_35 
REMARK   12  A    between atoms: C5D_35  and  C4D_36 
REMARK   13  A    between atoms: C3D_38  and  O3D_39 
REMARK   14  A    between atoms: C2D_41  and  O2D_42 
REMARK   15  A    between atoms: C1D_44  and  N1N_45 
REMARK   16  A    between atoms: C3N_47  and  C7N_48 
REMARK       I    between atoms: C7N_48  and  N7N_50 
REMARK   17  A    between atoms: C4N_53  and  C7Z_56 
REMARK   18  A    between atoms: C7Z_56  and  O7Z_57 
REMARK   19  A    between atoms: C7Z_56  and  C4Z_63 
ROOT
HETATM    1  PN  ZID A 300     -20.979  20.656 -14.146  1.00 26.51     0.417 P 
HETATM    2  O1N ZID A 300     -20.454  19.482 -14.907  1.00 30.48    -0.624 OA
HETATM    3  O2N ZID A 300     -21.978  20.506 -13.035  1.00 28.40    -0.624 OA
ENDROOT
BRANCH   1   4
HETATM    4  O3  ZID A 300     -21.455  21.712 -15.298  1.00 30.29    -0.180 OA
BRANCH   4   5
HETATM    5  PA  ZID A 300     -22.794  22.670 -15.290  1.00 28.62     0.417 P 
HETATM    6  O1A ZID A 300     -22.704  23.404 -16.605  1.00 28.37    -0.624 OA
HETATM    7  O2A ZID A 300     -24.010  21.907 -14.864  1.00 30.19    -0.624 OA
BRANCH   5   8
HETATM    8  O5B ZID A 300     -22.496  23.639 -14.062  1.00 29.52    -0.287 OA
BRANCH   8   9
HETATM    9  C5B ZID A 300     -21.937  24.929 -14.218  1.00 27.76     0.216 C 
BRANCH   9  10
HETATM   10  C4B ZID A 300     -23.153  25.822 -14.132  1.00 27.48     0.180 C 
HETATM   11  O4B ZID A 300     -24.309  25.007 -13.979  1.00 27.81    -0.353 OA
HETATM   12  C1B ZID A 300     -25.201  25.757 -13.201  1.00 28.20     0.262 C 
HETATM   13  C2B ZID A 300     -24.314  26.347 -12.096  1.00 28.50     0.198 C 
HETATM   14  C3B ZID A 300     -23.105  26.758 -12.902  1.00 25.42     0.182 C 
BRANCH  12  15
HETATM   15  N9A ZID A 300     -26.313  25.018 -12.607  1.00 26.08    -0.297 N 
HETATM   16  C8A ZID A 300     -27.594  25.416 -12.563  1.00 24.53     0.188 A 
HETATM   17  N7A ZID A 300     -28.301  24.427 -12.035  1.00 23.35    -0.346 N 
HETATM   18  C5A ZID A 300     -27.466  23.378 -11.802  1.00 25.38     0.122 A 
ATOM     19  H7A ZID A 300     -29.301  24.449 -11.835  1.00  0.00     0.167 HD
HETATM   20  C6A ZID A 300     -27.647  22.105 -11.284  1.00 23.71     0.131 A 
HETATM   21  C4A ZID A 300     -26.217  23.763 -12.192  1.00 23.66     0.142 A 
HETATM   22  N1A ZID A 300     -26.577  21.315 -11.147  1.00 27.06    -0.337 N 
HETATM   23  C2A ZID A 300     -25.354  21.718 -11.564  1.00 25.81     0.183 A 
ATOM     24  H1A ZID A 300     -26.685  20.394 -10.723  1.00  0.00     0.168 HD
HETATM   25  N3A ZID A 300     -25.172  22.933 -12.066  1.00 26.02    -0.336 N 
ATOM     26  H3A ZID A 300     -24.241  23.235 -12.355  1.00  0.00     0.168 HD
BRANCH  20  27
HETATM   27  N6A ZID A 300     -28.864  21.664 -10.892  1.00 26.06    -0.383 N 
ATOM     28 2H6A ZID A 300     -29.706  22.087 -11.283  1.00  0.00     0.157 HD
ATOM     29 1H6A ZID A 300     -28.968  20.898 -10.227  1.00  0.00     0.157 HD
ENDBRANCH  20  27
ENDBRANCH  12  15
BRANCH  13  30
HETATM   30  O2B ZID A 300     -24.950  27.457 -11.442  1.00 34.28    -0.388 OA
ATOM     31  H2B ZID A 300     -24.970  28.239 -11.981  1.00  0.00     0.210 HD
ENDBRANCH  13  30
BRANCH  14  32
HETATM   32  O3B ZID A 300     -23.294  28.079 -13.358  1.00 26.39    -0.390 OA
ATOM     33  H3B ZID A 300     -22.631  28.624 -12.950  1.00  0.00     0.210 HD
ENDBRANCH  14  32
ENDBRANCH   9  10
ENDBRANCH   8   9
ENDBRANCH   5   8
ENDBRANCH   4   5
ENDBRANCH   1   4
BRANCH   1  34
HETATM   34  O5D ZID A 300     -19.791  21.518 -13.542  1.00 27.38    -0.287 OA
BRANCH  34  35
HETATM   35  C5D ZID A 300     -19.953  22.397 -12.433  1.00 26.32     0.216 C 
BRANCH  35  36
HETATM   36  C4D ZID A 300     -18.572  22.832 -11.939  1.00 26.54     0.180 C 
HETATM   37  O4D ZID A 300     -17.735  22.874 -13.137  1.00 26.70    -0.353 OA
HETATM   38  C1D ZID A 300     -17.017  24.069 -13.093  1.00 24.37     0.259 C 
HETATM   39  C2D ZID A 300     -18.013  25.052 -12.448  1.00 23.83     0.198 C 
HETATM   40  C3D ZID A 300     -18.575  24.245 -11.308  1.00 24.97     0.182 C 
BRANCH  38  41
HETATM   41  N1N ZID A 300     -16.604  24.656 -14.346  1.00 25.28    -0.336 N 
HETATM   42  C2N ZID A 300     -15.922  23.920 -15.262  1.00 22.44     0.111 A 
HETATM   43  C3N ZID A 300     -15.624  24.478 -16.446  1.00 25.89     0.056 A 
HETATM   44  C4N ZID A 300     -16.073  25.800 -16.627  1.00 26.60    -0.007 A 
HETATM   45  C5N ZID A 300     -16.847  26.483 -15.725  1.00 27.45     0.028 A 
HETATM   46  C6N ZID A 300     -17.077  25.865 -14.557  1.00 24.23     0.094 A 
BRANCH  43  47
HETATM   47  C7N ZID A 300     -14.737  23.738 -17.459  1.00 28.02     0.251 C 
HETATM   48  O7N ZID A 300     -15.130  23.508 -18.618  1.00 26.84    -0.268 OA
HETATM   49  N7N ZID A 300     -13.672  23.088 -17.027  1.00 23.44    -0.366 N 
ATOM     50 2H7N ZID A 300     -13.350  23.276 -16.078  1.00  0.00     0.159 HD
ATOM     51 1H7N ZID A 300     -13.084  22.596 -17.700  1.00  0.00     0.159 HD
ENDBRANCH  43  47
BRANCH  44  52
HETATM   52  C7Z ZID A 300     -16.096  26.123 -17.951  1.00 27.75     0.185 C 
BRANCH  52  53
HETATM   53  O7Z ZID A 300     -17.207  27.118 -17.594  1.00 23.71    -0.386 OA
ATOM     54  H7Z ZID A 300     -17.813  26.483 -17.957  1.00  0.00     0.210 HD
ENDBRANCH  52  53
BRANCH  52  55
HETATM   55  C4Z ZID A 300     -15.401  27.172 -18.716  1.00 23.40    -0.023 A 
HETATM   56  C3Z ZID A 300     -14.765  26.902 -19.904  1.00 23.67     0.027 A 
HETATM   57  C2Z ZID A 300     -14.287  27.983 -20.629  1.00 22.98     0.088 A 
HETATM   58  N1Z ZID A 300     -14.466  29.264 -20.219  1.00 25.57    -0.375 N 
HETATM   59  C6Z ZID A 300     -15.154  29.565 -19.096  1.00 26.04     0.088 A 
ATOM     60  H1Z ZID A 300     -14.070  30.022 -20.776  1.00  0.00     0.164 HD
HETATM   61  C5Z ZID A 300     -15.649  28.525 -18.341  1.00 24.83     0.027 A 
ENDBRANCH  52  55
ENDBRANCH  44  52
ENDBRANCH  38  41
BRANCH  39  62
HETATM   62  O2D ZID A 300     -17.499  26.329 -11.960  1.00 23.60    -0.388 OA
ATOM     63  H2D ZID A 300     -18.029  27.045 -12.288  1.00  0.00     0.210 HD
ENDBRANCH  39  62
BRANCH  40  64
HETATM   64  O3D ZID A 300     -17.603  24.315 -10.219  1.00 26.13    -0.390 OA
ATOM     65  H3D ZID A 300     -17.910  24.908  -9.543  1.00  0.00     0.210 HD
ENDBRANCH  40  64
ENDBRANCH  35  36
ENDBRANCH  34  35
ENDBRANCH   1  34
TORSDOF 19
ENDMDL
MODEL 9
REMARK VINA RESULT:      -8.4      3.161      4.439
REMARK  19 active torsions:
REMARK  status: ('A' for Active; 'I' for Inactive)
REMARK    1  A    between atoms: PA_1  and  O5B_4 
REMARK    2  A    between atoms: PA_1  and  O3_30 
REMARK    3  A    between atoms: O5B_4  and  C5B_5 
REMARK    4  A    between atoms: C5B_5  and  C4B_6 
REMARK    5  A    between atoms: C3B_8  and  O3B_9 
REMARK    6  A    between atoms: C2B_11  and  O2B_12 
REMARK    7  A    between atoms: C1B_14  and  N9A_15 
REMARK    8  A    between atoms: C6A_20  and  N6A_21 
REMARK    9  A    between atoms: O3_30  and  PN_31 
REMARK   10  A    between atoms: PN_31  and  O5D_34 
REMARK   11  A    between atoms: O5D_34  and  C5D_35 
REMARK   12  A    between atoms: C5D_35  and  C4D_36 
REMARK   13  A    between atoms: C3D_38  and  O3D_39 
REMARK   14  A    between atoms: C2D_41  and  O2D_42 
REMARK   15  A    between atoms: C1D_44  and  N1N_45 
REMARK   16  A    between atoms: C3N_47  and  C7N_48 
REMARK       I    between atoms: C7N_48  and  N7N_50 
REMARK   17  A    between atoms: C4N_53  and  C7Z_56 
REMARK   18  A    between atoms: C7Z_56  and  O7Z_57 
REMARK   19  A    between atoms: C7Z_56  and  C4Z_63 
ROOT
HETATM    1  PN  ZID A 300     -20.222  21.865 -12.529  1.00 26.51     0.417 P 
HETATM    2  O1N ZID A 300     -20.830  20.513 -12.718  1.00 30.48    -0.624 OA
HETATM    3  O2N ZID A 300     -19.600  22.285 -11.228  1.00 28.40    -0.624 OA
ENDROOT
BRANCH   1   4
HETATM    4  O3  ZID A 300     -21.363  22.906 -13.060  1.00 30.29    -0.180 OA
BRANCH   4   5
HETATM    5  PA  ZID A 300     -22.055  22.961 -14.554  1.00 28.62     0.417 P 
HETATM    6  O1A ZID A 300     -21.475  24.214 -15.161  1.00 28.37    -0.624 OA
HETATM    7  O2A ZID A 300     -22.001  21.627 -15.231  1.00 30.19    -0.624 OA
BRANCH   5   8
HETATM    8  O5B ZID A 300     -23.595  23.149 -14.194  1.00 29.52    -0.287 OA
BRANCH   8   9
HETATM    9  C5B ZID A 300     -24.489  22.062 -14.047  1.00 27.76     0.216 C 
BRANCH   9  10
HETATM   10  C4B ZID A 300     -25.657  22.697 -13.327  1.00 27.48     0.180 C 
HETATM   11  O4B ZID A 300     -25.204  23.876 -12.674  1.00 27.81    -0.353 OA
HETATM   12  C1B ZID A 300     -26.293  24.758 -12.687  1.00 28.20     0.262 C 
HETATM   13  C2B ZID A 300     -26.850  24.628 -14.111  1.00 28.50     0.198 C 
HETATM   14  C3B ZID A 300     -26.776  23.132 -14.301  1.00 25.42     0.182 C 
BRANCH  12  15
HETATM   15  N9A ZID A 300     -25.989  26.157 -12.396  1.00 26.08    -0.297 N 
HETATM   16  C8A ZID A 300     -26.780  27.018 -11.736  1.00 24.53     0.188 A 
HETATM   17  N7A ZID A 300     -26.106  28.151 -11.594  1.00 23.35    -0.346 N 
HETATM   18  C5A ZID A 300     -24.861  27.978 -12.115  1.00 25.38     0.122 A 
ATOM     19  H7A ZID A 300     -26.461  29.007 -11.167  1.00  0.00     0.167 HD
HETATM   20  C6A ZID A 300     -23.749  28.797 -12.232  1.00 23.71     0.131 A 
HETATM   21  C4A ZID A 300     -24.798  26.704 -12.597  1.00 23.66     0.142 A 
HETATM   22  N1A ZID A 300     -22.666  28.317 -12.853  1.00 27.06    -0.337 N 
HETATM   23  C2A ZID A 300     -22.628  27.040 -13.300  1.00 25.81     0.183 A 
ATOM     24  H1A ZID A 300     -21.857  28.922 -12.991  1.00  0.00     0.168 HD
HETATM   25  N3A ZID A 300     -23.686  26.247 -13.188  1.00 26.02    -0.336 N 
ATOM     26  H3A ZID A 300     -23.653  25.294 -13.551  1.00  0.00     0.168 HD
BRANCH  20  27
HETATM   27  N6A ZID A 300     -23.748  30.065 -11.762  1.00 26.06    -0.383 N 
ATOM     28 2H6A ZID A 300     -22.935  30.663 -11.916  1.00  0.00     0.157 HD
ATOM     29 1H6A ZID A 300     -24.552  30.455 -11.270  1.00  0.00     0.157 HD
ENDBRANCH  20  27
ENDBRANCH  12  15
BRANCH  13  30
HETATM   30  O2B ZID A 300     -28.190  25.135 -14.204  1.00 34.28    -0.388 OA
ATOM     31  H2B ZID A 300     -28.639  25.145 -13.366  1.00  0.00     0.210 HD
ENDBRANCH  13  30
BRANCH  14  32
HETATM   32  O3B ZID A 300     -27.984  22.559 -13.852  1.00 26.39    -0.390 OA
ATOM     33  H3B ZID A 300     -28.312  21.996 -14.543  1.00  0.00     0.210 HD
ENDBRANCH  14  32
ENDBRANCH   9  10
ENDBRANCH   8   9
ENDBRANCH   5   8
ENDBRANCH   4   5
ENDBRANCH   1   4
BRANCH   1  34
HETATM   34  O5D ZID A 300     -19.130  22.157 -13.643  1.00 27.38    -0.287 OA
BRANCH  34  35
HETATM   35  C5D ZID A 300     -18.179  23.212 -13.541  1.00 26.32     0.216 C 
BRANCH  35  36
HETATM   36  C4D ZID A 300     -18.172  24.003 -14.852  1.00 26.54     0.180 C 
HETATM   37  O4D ZID A 300     -18.134  25.407 -14.447  1.00 26.70    -0.353 OA
HETATM   38  C1D ZID A 300     -17.168  26.034 -15.235  1.00 24.37     0.259 C 
HETATM   39  C2D ZID A 300     -16.096  24.940 -15.409  1.00 23.83     0.198 C 
HETATM   40  C3D ZID A 300     -16.922  23.721 -15.719  1.00 24.97     0.182 C 
BRANCH  38  41
HETATM   41  N1N ZID A 300     -16.499  27.191 -14.690  1.00 25.28    -0.336 N 
HETATM   42  C2N ZID A 300     -15.596  27.056 -13.684  1.00 22.44     0.111 A 
HETATM   43  C3N ZID A 300     -14.938  28.146 -13.255  1.00 25.89     0.056 A 
HETATM   44  C4N ZID A 300     -15.251  29.347 -13.921  1.00 26.60    -0.007 A 
HETATM   45  C5N ZID A 300     -16.091  29.436 -15.000  1.00 27.45     0.028 A 
HETATM   46  C6N ZID A 300     -16.728  28.307 -15.347  1.00 24.23     0.094 A 
BRANCH  43  47
HETATM   47  C7N ZID A 300     -14.012  28.071 -12.033  1.00 28.02     0.251 C 
HETATM   48  O7N ZID A 300     -12.778  27.962 -12.160  1.00 26.84    -0.268 OA
HETATM   49  N7N ZID A 300     -14.534  27.832 -10.844  1.00 23.44    -0.366 N 
ATOM     50 2H7N ZID A 300     -15.545  27.921 -10.740  1.00  0.00     0.159 HD
ATOM     51 1H7N ZID A 300     -13.919  27.782 -10.032  1.00  0.00     0.159 HD
ENDBRANCH  43  47
BRANCH  44  52
HETATM   52  C7Z ZID A 300     -14.275  30.276 -13.720  1.00 27.75     0.185 C 
BRANCH  52  53
HETATM   53  O7Z ZID A 300     -14.820  30.985 -14.965  1.00 23.71    -0.386 OA
ATOM     54  H7Z ZID A 300     -15.679  30.689 -14.687  1.00  0.00     0.210 HD
ENDBRANCH  52  53
BRANCH  52  55
HETATM   55  C4Z ZID A 300     -14.275  31.556 -12.990  1.00 23.40    -0.023 A 
HETATM   56  C3Z ZID A 300     -14.128  32.759 -13.638  1.00 23.67     0.027 A 
HETATM   57  C2Z ZID A 300     -14.309  33.911 -12.887  1.00 22.98     0.088 A 
HETATM   58  N1Z ZID A 300     -14.657  33.872 -11.576  1.00 25.57    -0.375 N 
HETATM   59  C6Z ZID A 300     -14.883  32.706 -10.931  1.00 26.04     0.088 A 
ATOM     60  H1Z ZID A 300     -14.751  34.749 -11.063  1.00  0.00     0.164 HD
HETATM   61  C5Z ZID A 300     -14.716  31.534 -11.635  1.00 24.83     0.027 A 
ENDBRANCH  52  55
ENDBRANCH  44  52
ENDBRANCH  38  41
BRANCH  39  62
HETATM   62  O2D ZID A 300     -15.076  25.137 -16.437  1.00 23.60    -0.388 OA
ATOM     63  H2D ZID A 300     -15.465  25.083 -17.301  1.00  0.00     0.210 HD
ENDBRANCH  39  62
BRANCH  40  64
HETATM   64  O3D ZID A 300     -17.265  23.791 -17.138  1.00 26.13    -0.390 OA
ATOM     65  H3D ZID A 300     -17.831  24.536 -17.303  1.00  0.00     0.210 HD
ENDBRANCH  40  64
ENDBRANCH  35  36
ENDBRANCH  34  35
ENDBRANCH   1  34
TORSDOF 19
ENDMDL
