MODEL 1
REMARK VINA RESULT:      -9.5      0.000      0.000
REMARK  19 active torsions:
REMARK  status: ('A' for Active; 'I' for Inactive)
REMARK    1  A    between atoms: PA_1  and  O5B_4 
REMARK    2  A    between atoms: PA_1  and  O3_30 
REMARK    3  A    between atoms: O5B_4  and  C5B_5 
REMARK    4  A    between atoms: C5B_5  and  C4B_6 
REMARK    5  A    between atoms: C3B_8  and  O3B_9 
REMARK    6  A    between atoms: C2B_11  and  O2B_12 
REMARK    7  A    between atoms: C1B_14  and  N9A_15 
REMARK    8  A    between atoms: C6A_20  and  N6A_21 
REMARK    9  A    between atoms: O3_30  and  PN_31 
REMARK   10  A    between atoms: PN_31  and  O5D_34 
REMARK   11  A    between atoms: O5D_34  and  C5D_35 
REMARK   12  A    between atoms: C5D_35  and  C4D_36 
REMARK   13  A    between atoms: C3D_38  and  O3D_39 
REMARK   14  A    between atoms: C2D_41  and  O2D_42 
REMARK   15  A    between atoms: C1D_44  and  N1N_45 
REMARK   16  A    between atoms: C3N_47  and  C7N_48 
REMARK       I    between atoms: C7N_48  and  N7N_50 
REMARK   17  A    between atoms: C4N_53  and  C7Z_56 
REMARK   18  A    between atoms: C7Z_56  and  O7Z_57 
REMARK   19  A    between atoms: C7Z_56  and  C4Z_63 
ROOT
HETATM    1  PN  ZID A 300       2.210 -33.110   9.395  1.00 26.51     0.417 P 
HETATM    2  O1N ZID A 300       3.566 -33.679   9.131  1.00 30.48    -0.624 OA
HETATM    3  O2N ZID A 300       1.085 -33.237   8.408  1.00 28.40    -0.624 OA
ENDROOT
BRANCH   1   4
HETATM    4  O3  ZID A 300       2.493 -31.567   9.849  1.00 30.29    -0.180 OA
BRANCH   4   5
HETATM    5  PA  ZID A 300       1.390 -30.361  10.053  1.00 28.62     0.417 P 
HETATM    6  O1A ZID A 300       0.957 -30.044   8.643  1.00 28.37    -0.624 OA
HETATM    7  O2A ZID A 300       0.423 -30.683  11.149  1.00 30.19    -0.624 OA
BRANCH   5   8
HETATM    8  O5B ZID A 300       2.289 -29.195  10.661  1.00 29.52    -0.287 OA
BRANCH   8   9
HETATM    9  C5B ZID A 300       2.444 -27.936  10.033  1.00 27.76     0.216 C 
BRANCH   9  10
HETATM   10  C4B ZID A 300       3.945 -27.814   9.916  1.00 27.48     0.180 C 
HETATM   11  O4B ZID A 300       4.547 -28.550  10.974  1.00 27.81    -0.353 OA
HETATM   12  C1B ZID A 300       5.759 -29.030  10.460  1.00 28.20     0.262 C 
HETATM   13  C2B ZID A 300       5.387 -29.533   9.059  1.00 28.50     0.198 C 
HETATM   14  C3B ZID A 300       4.480 -28.419   8.597  1.00 25.42     0.182 C 
BRANCH  12  15
HETATM   15  N9A ZID A 300       6.400 -30.101  11.221  1.00 26.08    -0.297 N 
HETATM   16  C8A ZID A 300       7.717 -30.235  11.444  1.00 24.53     0.188 A 
HETATM   17  N7A ZID A 300       7.881 -31.271  12.254  1.00 23.35    -0.346 N 
HETATM   18  C5A ZID A 300       6.653 -31.753  12.589  1.00 25.38     0.122 A 
ATOM     19  H7A ZID A 300       8.776 -31.644  12.572  1.00  0.00     0.167 HD
HETATM   20  C6A ZID A 300       6.219 -32.794  13.396  1.00 23.71     0.131 A 
HETATM   21  C4A ZID A 300       5.729 -30.986  11.944  1.00 23.66     0.142 A 
HETATM   22  N1A ZID A 300       4.907 -33.032  13.478  1.00 27.06    -0.337 N 
HETATM   23  C2A ZID A 300       4.013 -32.239  12.843  1.00 25.81     0.183 A 
ATOM     24  H1A ZID A 300       4.574 -33.824  14.028  1.00  0.00     0.168 HD
HETATM   25  N3A ZID A 300       4.419 -31.237  12.072  1.00 26.02    -0.336 N 
ATOM     26  H3A ZID A 300       3.736 -30.660  11.580  1.00  0.00     0.168 HD
BRANCH  20  27
HETATM   27  N6A ZID A 300       7.090 -33.581  14.070  1.00 26.06    -0.383 N 
ATOM     28 2H6A ZID A 300       8.058 -33.282  14.185  1.00  0.00     0.157 HD
ATOM     29 1H6A ZID A 300       6.799 -34.463  14.490  1.00  0.00     0.157 HD
ENDBRANCH  20  27
ENDBRANCH  12  15
BRANCH  13  30
HETATM   30  O2B ZID A 300       6.547 -29.688   8.226  1.00 34.28    -0.388 OA
ATOM     31  H2B ZID A 300       6.367 -30.178   7.432  1.00  0.00     0.210 HD
ENDBRANCH  13  30
BRANCH  14  32
HETATM   32  O3B ZID A 300       5.262 -27.434   7.959  1.00 26.39    -0.390 OA
ATOM     33  H3B ZID A 300       5.834 -27.874   7.340  1.00  0.00     0.210 HD
ENDBRANCH  14  32
ENDBRANCH   9  10
ENDBRANCH   8   9
ENDBRANCH   5   8
ENDBRANCH   4   5
ENDBRANCH   1   4
BRANCH   1  34
HETATM   34  O5D ZID A 300       1.631 -33.637  10.776  1.00 27.38    -0.287 OA
BRANCH  34  35
HETATM   35  C5D ZID A 300       0.429 -34.392  10.878  1.00 26.32     0.216 C 
BRANCH  35  36
HETATM   36  C4D ZID A 300       0.629 -35.508  11.906  1.00 26.54     0.180 C 
HETATM   37  O4D ZID A 300       1.884 -36.154  11.526  1.00 26.70    -0.353 OA
HETATM   38  C1D ZID A 300       2.629 -36.320  12.693  1.00 24.37     0.259 C 
HETATM   39  C2D ZID A 300       2.278 -35.063  13.512  1.00 23.83     0.198 C 
HETATM   40  C3D ZID A 300       0.784 -34.976  13.351  1.00 24.97     0.182 C 
BRANCH  38  41
HETATM   41  N1N ZID A 300       4.068 -36.353  12.576  1.00 25.28    -0.336 N 
HETATM   42  C2N ZID A 300       4.833 -36.828  13.594  1.00 22.44     0.111 A 
HETATM   43  C3N ZID A 300       6.162 -36.913  13.418  1.00 25.89     0.056 A 
HETATM   44  C4N ZID A 300       6.637 -36.504  12.156  1.00 26.60    -0.007 A 
HETATM   45  C5N ZID A 300       5.832 -36.125  11.114  1.00 27.45     0.028 A 
HETATM   46  C6N ZID A 300       4.520 -36.040  11.381  1.00 24.23     0.094 A 
BRANCH  43  47
HETATM   47  C7N ZID A 300       7.081 -37.312  14.581  1.00 28.02     0.251 C 
HETATM   48  O7N ZID A 300       7.746 -36.462  15.203  1.00 26.84    -0.268 OA
HETATM   49  N7N ZID A 300       7.397 -38.584  14.745  1.00 23.44    -0.366 N 
ATOM     50 2H7N ZID A 300       6.852 -39.280  14.236  1.00  0.00     0.159 HD
ATOM     51 1H7N ZID A 300       8.008 -38.849  15.517  1.00  0.00     0.159 HD
ENDBRANCH  43  47
BRANCH  44  52
HETATM   52  C7Z ZID A 300       7.885 -37.001  11.928  1.00 27.75     0.185 C 
BRANCH  52  53
HETATM   53  O7Z ZID A 300       7.432 -37.221  10.480  1.00 23.71    -0.386 OA
ATOM     54  H7Z ZID A 300       8.310 -36.962  10.227  1.00  0.00     0.210 HD
ENDBRANCH  52  53
BRANCH  52  55
HETATM   55  C4Z ZID A 300       9.121 -36.362  11.445  1.00 23.40    -0.023 A 
HETATM   56  C3Z ZID A 300       9.687 -36.699  10.239  1.00 23.67     0.027 A 
HETATM   57  C2Z ZID A 300      10.751 -35.926   9.799  1.00 22.98     0.088 A 
HETATM   58  N1Z ZID A 300      11.203 -34.854  10.497  1.00 25.57    -0.375 N 
HETATM   59  C6Z ZID A 300      10.619 -34.452  11.648  1.00 26.04     0.088 A 
ATOM     60  H1Z ZID A 300      12.007 -34.336  10.142  1.00  0.00     0.164 HD
HETATM   61  C5Z ZID A 300       9.557 -35.188  12.126  1.00 24.83     0.027 A 
ENDBRANCH  52  55
ENDBRANCH  44  52
ENDBRANCH  38  41
BRANCH  39  62
HETATM   62  O2D ZID A 300       2.636 -35.045  14.929  1.00 23.60    -0.388 OA
ATOM     63  H2D ZID A 300       3.392 -35.599  15.085  1.00  0.00     0.210 HD
ENDBRANCH  39  62
BRANCH  40  64
HETATM   64  O3D ZID A 300       0.198 -35.917  14.303  1.00 26.13    -0.390 OA
ATOM     65  H3D ZID A 300      -0.683 -35.646  14.532  1.00  0.00     0.210 HD
ENDBRANCH  40  64
ENDBRANCH  35  36
ENDBRANCH  34  35
ENDBRANCH   1  34
TORSDOF 19
ENDMDL
MODEL 2
REMARK VINA RESULT:      -9.4      4.046      8.474
REMARK  19 active torsions:
REMARK  status: ('A' for Active; 'I' for Inactive)
REMARK    1  A    between atoms: PA_1  and  O5B_4 
REMARK    2  A    between atoms: PA_1  and  O3_30 
REMARK    3  A    between atoms: O5B_4  and  C5B_5 
REMARK    4  A    between atoms: C5B_5  and  C4B_6 
REMARK    5  A    between atoms: C3B_8  and  O3B_9 
REMARK    6  A    between atoms: C2B_11  and  O2B_12 
REMARK    7  A    between atoms: C1B_14  and  N9A_15 
REMARK    8  A    between atoms: C6A_20  and  N6A_21 
REMARK    9  A    between atoms: O3_30  and  PN_31 
REMARK   10  A    between atoms: PN_31  and  O5D_34 
REMARK   11  A    between atoms: O5D_34  and  C5D_35 
REMARK   12  A    between atoms: C5D_35  and  C4D_36 
REMARK   13  A    between atoms: C3D_38  and  O3D_39 
REMARK   14  A    between atoms: C2D_41  and  O2D_42 
REMARK   15  A    between atoms: C1D_44  and  N1N_45 
REMARK   16  A    between atoms: C3N_47  and  C7N_48 
REMARK       I    between atoms: C7N_48  and  N7N_50 
REMARK   17  A    between atoms: C4N_53  and  C7Z_56 
REMARK   18  A    between atoms: C7Z_56  and  O7Z_57 
REMARK   19  A    between atoms: C7Z_56  and  C4Z_63 
ROOT
HETATM    1  PN  ZID A 300       3.814 -35.732  14.546  1.00 26.51     0.417 P 
HETATM    2  O1N ZID A 300       3.982 -34.829  15.724  1.00 30.48    -0.624 OA
HETATM    3  O2N ZID A 300       3.429 -37.176  14.695  1.00 28.40    -0.624 OA
ENDROOT
BRANCH   1   4
HETATM    4  O3  ZID A 300       5.175 -35.519  13.668  1.00 30.29    -0.180 OA
BRANCH   4   5
HETATM    5  PA  ZID A 300       6.728 -35.490  14.215  1.00 28.62     0.417 P 
HETATM    6  O1A ZID A 300       7.084 -34.025  14.177  1.00 28.37    -0.624 OA
HETATM    7  O2A ZID A 300       6.893 -36.336  15.439  1.00 30.19    -0.624 OA
BRANCH   5   8
HETATM    8  O5B ZID A 300       7.491 -36.303  13.078  1.00 29.52    -0.287 OA
BRANCH   8   9
HETATM    9  C5B ZID A 300       6.821 -37.111  12.129  1.00 27.76     0.216 C 
BRANCH   9  10
HETATM   10  C4B ZID A 300       7.265 -36.506  10.817  1.00 27.48     0.180 C 
HETATM   11  O4B ZID A 300       6.421 -35.403  10.513  1.00 27.81    -0.353 OA
HETATM   12  C1B ZID A 300       7.226 -34.491   9.818  1.00 28.20     0.262 C 
HETATM   13  C2B ZID A 300       8.537 -34.479  10.615  1.00 28.50     0.198 C 
HETATM   14  C3B ZID A 300       8.708 -35.954  10.887  1.00 25.42     0.182 C 
BRANCH  12  15
HETATM   15  N9A ZID A 300       6.702 -33.132   9.700  1.00 26.08    -0.297 N 
HETATM   16  C8A ZID A 300       6.877 -32.303   8.658  1.00 24.53     0.188 A 
HETATM   17  N7A ZID A 300       6.165 -31.210   8.894  1.00 23.35    -0.346 N 
HETATM   18  C5A ZID A 300       5.491 -31.380  10.064  1.00 25.38     0.122 A 
ATOM     19  H7A ZID A 300       6.129 -30.382   8.299  1.00  0.00     0.167 HD
HETATM   20  C6A ZID A 300       4.608 -30.591  10.784  1.00 23.71     0.131 A 
HETATM   21  C4A ZID A 300       5.826 -32.610  10.547  1.00 23.66     0.142 A 
HETATM   22  N1A ZID A 300       4.148 -31.053  11.951  1.00 27.06    -0.337 N 
HETATM   23  C2A ZID A 300       4.482 -32.288  12.393  1.00 25.81     0.183 A 
ATOM     24  H1A ZID A 300       3.535 -30.466  12.517  1.00  0.00     0.168 HD
HETATM   25  N3A ZID A 300       5.323 -33.052  11.708  1.00 26.02    -0.336 N 
ATOM     26  H3A ZID A 300       5.586 -33.972  12.063  1.00  0.00     0.168 HD
BRANCH  20  27
HETATM   27  N6A ZID A 300       4.230 -29.368  10.348  1.00 26.06    -0.383 N 
ATOM     28 2H6A ZID A 300       4.927 -28.726   9.971  1.00  0.00     0.157 HD
ATOM     29 1H6A ZID A 300       3.254 -29.071  10.366  1.00  0.00     0.157 HD
ENDBRANCH  20  27
ENDBRANCH  12  15
BRANCH  13  30
HETATM   30  O2B ZID A 300       9.619 -33.926   9.849  1.00 34.28    -0.388 OA
ATOM     31  H2B ZID A 300       9.943 -33.108  10.207  1.00  0.00     0.210 HD
ENDBRANCH  13  30
BRANCH  14  32
HETATM   32  O3B ZID A 300       9.440 -36.527   9.827  1.00 26.39    -0.390 OA
ATOM     33  H3B ZID A 300       9.752 -35.820   9.275  1.00  0.00     0.210 HD
ENDBRANCH  14  32
ENDBRANCH   9  10
ENDBRANCH   8   9
ENDBRANCH   5   8
ENDBRANCH   4   5
ENDBRANCH   1   4
BRANCH   1  34
HETATM   34  O5D ZID A 300       2.788 -35.119  13.502  1.00 27.38    -0.287 OA
BRANCH  34  35
HETATM   35  C5D ZID A 300       2.587 -35.658  12.200  1.00 26.32     0.216 C 
BRANCH  35  36
HETATM   36  C4D ZID A 300       1.175 -35.304  11.728  1.00 26.54     0.180 C 
HETATM   37  O4D ZID A 300       0.576 -34.569  12.841  1.00 26.70    -0.353 OA
HETATM   38  C1D ZID A 300      -0.048 -33.444  12.300  1.00 24.37     0.259 C 
HETATM   39  C2D ZID A 300       0.885 -33.053  11.137  1.00 23.83     0.198 C 
HETATM   40  C3D ZID A 300       1.168 -34.381  10.486  1.00 24.97     0.182 C 
BRANCH  38  41
HETATM   41  N1N ZID A 300      -0.180 -32.276  13.139  1.00 25.28    -0.336 N 
HETATM   42  C2N ZID A 300      -1.404 -31.860  13.556  1.00 22.44     0.111 A 
HETATM   43  C3N ZID A 300      -1.480 -30.816  14.397  1.00 25.89     0.056 A 
HETATM   44  C4N ZID A 300      -0.247 -30.253  14.781  1.00 26.60    -0.007 A 
HETATM   45  C5N ZID A 300       0.976 -30.757  14.426  1.00 27.45     0.028 A 
HETATM   46  C6N ZID A 300       0.964 -31.784  13.562  1.00 24.23     0.094 A 
BRANCH  43  47
HETATM   47  C7N ZID A 300      -2.841 -30.223  14.787  1.00 28.02     0.251 C 
HETATM   48  O7N ZID A 300      -3.570 -30.774  15.633  1.00 26.84    -0.268 OA
HETATM   49  N7N ZID A 300      -3.377 -29.287  14.025  1.00 23.44    -0.366 N 
ATOM     50 2H7N ZID A 300      -2.780 -28.835  13.333  1.00  0.00     0.159 HD
ATOM     51 1H7N ZID A 300      -4.282 -28.893  14.285  1.00  0.00     0.159 HD
ENDBRANCH  43  47
BRANCH  44  52
HETATM   52  C7Z ZID A 300      -0.392 -29.508  15.913  1.00 27.75     0.185 C 
BRANCH  52  53
HETATM   53  O7Z ZID A 300       1.128 -29.627  16.075  1.00 23.71    -0.386 OA
ATOM     54  H7Z ZID A 300       0.993 -29.382  16.983  1.00  0.00     0.210 HD
ENDBRANCH  52  53
BRANCH  52  55
HETATM   55  C4Z ZID A 300      -0.304 -28.057  16.149  1.00 23.40    -0.023 A 
HETATM   56  C3Z ZID A 300      -0.564 -27.506  17.381  1.00 23.67     0.027 A 
HETATM   57  C2Z ZID A 300      -0.292 -26.155  17.543  1.00 22.98     0.088 A 
HETATM   58  N1Z ZID A 300       0.246 -25.402  16.551  1.00 25.57    -0.375 N 
HETATM   59  C6Z ZID A 300       0.583 -25.932  15.354  1.00 26.04     0.088 A 
ATOM     60  H1Z ZID A 300       0.400 -24.407  16.713  1.00  0.00     0.164 HD
HETATM   61  C5Z ZID A 300       0.332 -27.270  15.145  1.00 24.83     0.027 A 
ENDBRANCH  52  55
ENDBRANCH  44  52
ENDBRANCH  38  41
BRANCH  39  62
HETATM   62  O2D ZID A 300       0.386 -32.100  10.148  1.00 23.60    -0.388 OA
ATOM     63  H2D ZID A 300       0.096 -32.557   9.368  1.00  0.00     0.210 HD
ENDBRANCH  39  62
BRANCH  40  64
HETATM   64  O3D ZID A 300       0.022 -34.688   9.633  1.00 26.13    -0.390 OA
ATOM     65  H3D ZID A 300      -0.634 -34.005   9.707  1.00  0.00     0.210 HD
ENDBRANCH  40  64
ENDBRANCH  35  36
ENDBRANCH  34  35
ENDBRANCH   1  34
TORSDOF 19
ENDMDL
MODEL 3
REMARK VINA RESULT:      -9.4      4.141      8.625
REMARK  19 active torsions:
REMARK  status: ('A' for Active; 'I' for Inactive)
REMARK    1  A    between atoms: PA_1  and  O5B_4 
REMARK    2  A    between atoms: PA_1  and  O3_30 
REMARK    3  A    between atoms: O5B_4  and  C5B_5 
REMARK    4  A    between atoms: C5B_5  and  C4B_6 
REMARK    5  A    between atoms: C3B_8  and  O3B_9 
REMARK    6  A    between atoms: C2B_11  and  O2B_12 
REMARK    7  A    between atoms: C1B_14  and  N9A_15 
REMARK    8  A    between atoms: C6A_20  and  N6A_21 
REMARK    9  A    between atoms: O3_30  and  PN_31 
REMARK   10  A    between atoms: PN_31  and  O5D_34 
REMARK   11  A    between atoms: O5D_34  and  C5D_35 
REMARK   12  A    between atoms: C5D_35  and  C4D_36 
REMARK   13  A    between atoms: C3D_38  and  O3D_39 
REMARK   14  A    between atoms: C2D_41  and  O2D_42 
REMARK   15  A    between atoms: C1D_44  and  N1N_45 
REMARK   16  A    between atoms: C3N_47  and  C7N_48 
REMARK       I    between atoms: C7N_48  and  N7N_50 
REMARK   17  A    between atoms: C4N_53  and  C7Z_56 
REMARK   18  A    between atoms: C7Z_56  and  O7Z_57 
REMARK   19  A    between atoms: C7Z_56  and  C4Z_63 
ROOT
HETATM    1  PN  ZID A 300       3.359 -34.950  14.364  1.00 26.51     0.417 P 
HETATM    2  O1N ZID A 300       3.452 -33.489  14.661  1.00 30.48    -0.624 OA
HETATM    3  O2N ZID A 300       3.471 -35.993  15.440  1.00 28.40    -0.624 OA
ENDROOT
BRANCH   1   4
HETATM    4  O3  ZID A 300       4.407 -35.185  13.132  1.00 30.29    -0.180 OA
BRANCH   4   5
HETATM    5  PA  ZID A 300       5.948 -35.758  13.221  1.00 28.62     0.417 P 
HETATM    6  O1A ZID A 300       6.701 -34.630  13.880  1.00 28.37    -0.624 OA
HETATM    7  O2A ZID A 300       5.980 -37.166  13.729  1.00 30.19    -0.624 OA
BRANCH   5   8
HETATM    8  O5B ZID A 300       6.335 -35.895  11.682  1.00 29.52    -0.287 OA
BRANCH   8   9
HETATM    9  C5B ZID A 300       7.247 -36.863  11.201  1.00 27.76     0.216 C 
BRANCH   9  10
HETATM   10  C4B ZID A 300       8.181 -36.035  10.348  1.00 27.48     0.180 C 
HETATM   11  O4B ZID A 300       7.505 -34.849   9.951  1.00 27.81    -0.353 OA
HETATM   12  C1B ZID A 300       8.495 -33.862   9.857  1.00 28.20     0.262 C 
HETATM   13  C2B ZID A 300       9.348 -34.081  11.114  1.00 28.50     0.198 C 
HETATM   14  C3B ZID A 300       9.440 -35.588  11.127  1.00 25.42     0.182 C 
BRANCH  12  15
HETATM   15  N9A ZID A 300       8.023 -32.480   9.810  1.00 26.08    -0.297 N 
HETATM   16  C8A ZID A 300       8.378 -31.552   8.907  1.00 24.53     0.188 A 
HETATM   17  N7A ZID A 300       7.659 -30.466   9.148  1.00 23.35    -0.346 N 
HETATM   18  C5A ZID A 300       6.802 -30.735  10.171  1.00 25.38     0.122 A 
ATOM     19  H7A ZID A 300       7.734 -29.578   8.651  1.00  0.00     0.167 HD
HETATM   20  C6A ZID A 300       5.830 -29.996  10.826  1.00 23.71     0.131 A 
HETATM   21  C4A ZID A 300       7.032 -32.020  10.561  1.00 23.66     0.142 A 
HETATM   22  N1A ZID A 300       5.179 -30.562  11.847  1.00 27.06    -0.337 N 
HETATM   23  C2A ZID A 300       5.414 -31.849  12.196  1.00 25.81     0.183 A 
ATOM     24  H1A ZID A 300       4.495 -30.017  12.371  1.00  0.00     0.168 HD
HETATM   25  N3A ZID A 300       6.341 -32.566  11.571  1.00 26.02    -0.336 N 
ATOM     26  H3A ZID A 300       6.525 -33.527  11.859  1.00  0.00     0.168 HD
BRANCH  20  27
HETATM   27  N6A ZID A 300       5.549 -28.720  10.474  1.00 26.06    -0.383 N 
ATOM     28 2H6A ZID A 300       6.140 -27.960  10.811  1.00  0.00     0.157 HD
ATOM     29 1H6A ZID A 300       4.768 -28.493   9.859  1.00  0.00     0.157 HD
ENDBRANCH  20  27
ENDBRANCH  12  15
BRANCH  13  30
HETATM   30  O2B ZID A 300      10.632 -33.447  11.002  1.00 34.28    -0.388 OA
ATOM     31  H2B ZID A 300      10.712 -32.916  10.218  1.00  0.00     0.210 HD
ENDBRANCH  13  30
BRANCH  14  32
HETATM   32  O3B ZID A 300      10.570 -35.978  10.379  1.00 26.39    -0.390 OA
ATOM     33  H3B ZID A 300      11.197 -35.266  10.409  1.00  0.00     0.210 HD
ENDBRANCH  14  32
ENDBRANCH   9  10
ENDBRANCH   8   9
ENDBRANCH   5   8
ENDBRANCH   4   5
ENDBRANCH   1   4
BRANCH   1  34
HETATM   34  O5D ZID A 300       2.023 -35.286  13.576  1.00 27.38    -0.287 OA
BRANCH  34  35
HETATM   35  C5D ZID A 300       2.012 -35.874  12.280  1.00 26.32     0.216 C 
BRANCH  35  36
HETATM   36  C4D ZID A 300       1.282 -34.935  11.315  1.00 26.54     0.180 C 
HETATM   37  O4D ZID A 300       0.309 -34.224  12.142  1.00 26.70    -0.353 OA
HETATM   38  C1D ZID A 300       0.392 -32.873  11.801  1.00 24.37     0.259 C 
HETATM   39  C2D ZID A 300       1.892 -32.680  11.508  1.00 23.83     0.198 C 
HETATM   40  C3D ZID A 300       2.220 -33.887  10.670  1.00 24.97     0.182 C 
BRANCH  38  41
HETATM   41  N1N ZID A 300       0.035 -31.900  12.806  1.00 25.28    -0.336 N 
HETATM   42  C2N ZID A 300      -0.551 -30.726  12.454  1.00 22.44     0.111 A 
HETATM   43  C3N ZID A 300      -0.938 -29.881  13.423  1.00 25.89     0.056 A 
HETATM   44  C4N ZID A 300      -0.703 -30.317  14.741  1.00 26.60    -0.007 A 
HETATM   45  C5N ZID A 300      -0.203 -31.550  15.070  1.00 27.45     0.028 A 
HETATM   46  C6N ZID A 300       0.184 -32.323  14.044  1.00 24.23     0.094 A 
BRANCH  43  47
HETATM   47  C7N ZID A 300      -1.478 -28.486  13.075  1.00 28.02     0.251 C 
HETATM   48  O7N ZID A 300      -2.643 -28.325  12.666  1.00 26.84    -0.268 OA
HETATM   49  N7N ZID A 300      -0.628 -27.485  12.931  1.00 23.44    -0.366 N 
ATOM     50 2H7N ZID A 300       0.326 -27.617  13.266  1.00  0.00     0.159 HD
ATOM     51 1H7N ZID A 300      -0.986 -26.559  12.700  1.00  0.00     0.159 HD
ENDBRANCH  43  47
BRANCH  44  52
HETATM   52  C7Z ZID A 300      -1.475 -29.621  15.622  1.00 27.75     0.185 C 
BRANCH  52  53
HETATM   53  O7Z ZID A 300      -1.367 -30.843  16.541  1.00 23.71    -0.386 OA
ATOM     54  H7Z ZID A 300      -0.425 -30.748  16.462  1.00  0.00     0.210 HD
ENDBRANCH  52  53
BRANCH  52  55
HETATM   55  C4Z ZID A 300      -1.125 -28.741  16.751  1.00 23.40    -0.023 A 
HETATM   56  C3Z ZID A 300      -0.403 -27.586  16.572  1.00 23.67     0.027 A 
HETATM   57  C2Z ZID A 300      -0.269 -26.744  17.666  1.00 22.98     0.088 A 
HETATM   58  N1Z ZID A 300      -0.854 -27.014  18.861  1.00 25.57    -0.375 N 
HETATM   59  C6Z ZID A 300      -1.633 -28.103  19.046  1.00 26.04     0.088 A 
ATOM     60  H1Z ZID A 300      -0.701 -26.375  19.642  1.00  0.00     0.164 HD
HETATM   61  C5Z ZID A 300      -1.796 -28.969  17.988  1.00 24.83     0.027 A 
ENDBRANCH  52  55
ENDBRANCH  44  52
ENDBRANCH  38  41
BRANCH  39  62
HETATM   62  O2D ZID A 300       2.305 -31.458  10.820  1.00 23.60    -0.388 OA
ATOM     63  H2D ZID A 300       1.585 -30.840  10.786  1.00  0.00     0.210 HD
ENDBRANCH  39  62
BRANCH  40  64
HETATM   64  O3D ZID A 300       1.783 -33.588   9.308  1.00 26.13    -0.390 OA
ATOM     65  H3D ZID A 300       0.990 -33.065   9.325  1.00  0.00     0.210 HD
ENDBRANCH  40  64
ENDBRANCH  35  36
ENDBRANCH  34  35
ENDBRANCH   1  34
TORSDOF 19
ENDMDL
MODEL 4
REMARK VINA RESULT:      -9.3      3.998      5.343
REMARK  19 active torsions:
REMARK  status: ('A' for Active; 'I' for Inactive)
REMARK    1  A    between atoms: PA_1  and  O5B_4 
REMARK    2  A    between atoms: PA_1  and  O3_30 
REMARK    3  A    between atoms: O5B_4  and  C5B_5 
REMARK    4  A    between atoms: C5B_5  and  C4B_6 
REMARK    5  A    between atoms: C3B_8  and  O3B_9 
REMARK    6  A    between atoms: C2B_11  and  O2B_12 
REMARK    7  A    between atoms: C1B_14  and  N9A_15 
REMARK    8  A    between atoms: C6A_20  and  N6A_21 
REMARK    9  A    between atoms: O3_30  and  PN_31 
REMARK   10  A    between atoms: PN_31  and  O5D_34 
REMARK   11  A    between atoms: O5D_34  and  C5D_35 
REMARK   12  A    between atoms: C5D_35  and  C4D_36 
REMARK   13  A    between atoms: C3D_38  and  O3D_39 
REMARK   14  A    between atoms: C2D_41  and  O2D_42 
REMARK   15  A    between atoms: C1D_44  and  N1N_45 
REMARK   16  A    between atoms: C3N_47  and  C7N_48 
REMARK       I    between atoms: C7N_48  and  N7N_50 
REMARK   17  A    between atoms: C4N_53  and  C7Z_56 
REMARK   18  A    between atoms: C7Z_56  and  O7Z_57 
REMARK   19  A    between atoms: C7Z_56  and  C4Z_63 
ROOT
HETATM    1  PN  ZID A 300       1.409 -32.989   8.861  1.00 26.51     0.417 P 
HETATM    2  O1N ZID A 300       2.868 -33.257   9.039  1.00 30.48    -0.624 OA
HETATM    3  O2N ZID A 300       0.689 -33.306   7.581  1.00 28.40    -0.624 OA
ENDROOT
BRANCH   1   4
HETATM    4  O3  ZID A 300       1.215 -31.439   9.338  1.00 30.29    -0.180 OA
BRANCH   4   5
HETATM    5  PA  ZID A 300       0.251 -30.291   8.656  1.00 28.62     0.417 P 
HETATM    6  O1A ZID A 300       1.088 -29.764   7.518  1.00 28.37    -0.624 OA
HETATM    7  O2A ZID A 300      -1.149 -30.791   8.474  1.00 30.19    -0.624 OA
BRANCH   5   8
HETATM    8  O5B ZID A 300       0.130 -29.224   9.832  1.00 29.52    -0.287 OA
BRANCH   8   9
HETATM    9  C5B ZID A 300      -1.085 -28.955  10.505  1.00 27.76     0.216 C 
BRANCH   9  10
HETATM   10  C4B ZID A 300      -0.623 -28.702  11.922  1.00 27.48     0.180 C 
HETATM   11  O4B ZID A 300      -1.725 -28.884  12.801  1.00 27.81    -0.353 OA
HETATM   12  C1B ZID A 300      -1.179 -29.372  13.996  1.00 28.20     0.262 C 
HETATM   13  C2B ZID A 300      -0.165 -30.425  13.530  1.00 28.50     0.198 C 
HETATM   14  C3B ZID A 300       0.469 -29.703  12.366  1.00 25.42     0.182 C 
BRANCH  12  15
HETATM   15  N9A ZID A 300      -2.124 -29.971  14.936  1.00 26.08    -0.297 N 
HETATM   16  C8A ZID A 300      -2.966 -30.984  14.675  1.00 24.53     0.188 A 
HETATM   17  N7A ZID A 300      -3.577 -31.297  15.809  1.00 23.35    -0.346 N 
HETATM   18  C5A ZID A 300      -3.069 -30.515  16.801  1.00 25.38     0.122 A 
ATOM     19  H7A ZID A 300      -4.304 -32.004  15.920  1.00  0.00     0.167 HD
HETATM   20  C6A ZID A 300      -3.315 -30.412  18.161  1.00 23.71     0.131 A 
HETATM   21  C4A ZID A 300      -2.136 -29.700  16.234  1.00 23.66     0.142 A 
HETATM   22  N1A ZID A 300      -2.654 -29.484  18.860  1.00 27.06    -0.337 N 
HETATM   23  C2A ZID A 300      -1.718 -28.704  18.271  1.00 25.81     0.183 A 
ATOM     24  H1A ZID A 300      -2.859 -29.362  19.852  1.00  0.00     0.168 HD
HETATM   25  N3A ZID A 300      -1.471 -28.799  16.971  1.00 26.02    -0.336 N 
ATOM     26  H3A ZID A 300      -0.780 -28.189  16.534  1.00  0.00     0.168 HD
BRANCH  20  27
HETATM   27  N6A ZID A 300      -4.221 -31.203  18.782  1.00 26.06    -0.383 N 
ATOM     28 2H6A ZID A 300      -3.950 -31.728  19.613  1.00  0.00     0.157 HD
ATOM     29 1H6A ZID A 300      -5.183 -31.277  18.452  1.00  0.00     0.157 HD
ENDBRANCH  20  27
ENDBRANCH  12  15
BRANCH  13  30
HETATM   30  O2B ZID A 300       0.777 -30.748  14.565  1.00 34.28    -0.388 OA
ATOM     31  H2B ZID A 300       0.454 -31.411  15.164  1.00  0.00     0.210 HD
ENDBRANCH  13  30
BRANCH  14  32
HETATM   32  O3B ZID A 300       1.568 -28.958  12.842  1.00 26.39    -0.390 OA
ATOM     33  H3B ZID A 300       2.345 -29.497  12.750  1.00  0.00     0.210 HD
ENDBRANCH  14  32
ENDBRANCH   9  10
ENDBRANCH   8   9
ENDBRANCH   5   8
ENDBRANCH   4   5
ENDBRANCH   1   4
BRANCH   1  34
HETATM   34  O5D ZID A 300       0.560 -33.676  10.012  1.00 27.38    -0.287 OA
BRANCH  34  35
HETATM   35  C5D ZID A 300       0.671 -35.056  10.342  1.00 26.32     0.216 C 
BRANCH  35  36
HETATM   36  C4D ZID A 300       0.841 -35.193  11.858  1.00 26.54     0.180 C 
HETATM   37  O4D ZID A 300       2.055 -35.987  12.034  1.00 26.70    -0.353 OA
HETATM   38  C1D ZID A 300       2.817 -35.357  13.018  1.00 24.37     0.259 C 
HETATM   39  C2D ZID A 300       2.543 -33.862  12.767  1.00 23.83     0.198 C 
HETATM   40  C3D ZID A 300       1.052 -33.833  12.565  1.00 24.97     0.182 C 
BRANCH  38  41
HETATM   41  N1N ZID A 300       4.250 -35.531  12.978  1.00 25.28    -0.336 N 
HETATM   42  C2N ZID A 300       4.874 -36.333  13.880  1.00 22.44     0.111 A 
HETATM   43  C3N ZID A 300       6.197 -36.529  13.762  1.00 25.89     0.056 A 
HETATM   44  C4N ZID A 300       6.816 -35.878  12.677  1.00 26.60    -0.007 A 
HETATM   45  C5N ZID A 300       6.145 -35.158  11.724  1.00 27.45     0.028 A 
HETATM   46  C6N ZID A 300       4.830 -34.987  11.930  1.00 24.23     0.094 A 
BRANCH  43  47
HETATM   47  C7N ZID A 300       6.970 -37.312  14.833  1.00 28.02     0.251 C 
HETATM   48  O7N ZID A 300       7.609 -36.728  15.729  1.00 26.84    -0.268 OA
HETATM   49  N7N ZID A 300       7.202 -38.599  14.648  1.00 23.44    -0.366 N 
ATOM     50 2H7N ZID A 300       6.679 -39.077  13.915  1.00  0.00     0.159 HD
ATOM     51 1H7N ZID A 300       7.716 -39.119  15.359  1.00  0.00     0.159 HD
ENDBRANCH  43  47
BRANCH  44  52
HETATM   52  C7Z ZID A 300       8.022 -36.448  12.399  1.00 27.75     0.185 C 
BRANCH  52  53
HETATM   53  O7Z ZID A 300       7.241 -37.477  11.574  1.00 23.71    -0.386 OA
ATOM     54  H7Z ZID A 300       6.821 -37.727  12.388  1.00  0.00     0.210 HD
ENDBRANCH  52  53
BRANCH  52  55
HETATM   55  C4Z ZID A 300       8.960 -36.261  11.279  1.00 23.40    -0.023 A 
HETATM   56  C3Z ZID A 300       9.910 -35.268  11.288  1.00 23.67     0.027 A 
HETATM   57  C2Z ZID A 300      10.850 -35.278  10.269  1.00 22.98     0.088 A 
HETATM   58  N1Z ZID A 300      10.872 -36.244   9.316  1.00 25.57    -0.375 N 
HETATM   59  C6Z ZID A 300       9.998 -37.276   9.324  1.00 26.04     0.088 A 
ATOM     60  H1Z ZID A 300      11.568 -36.190   8.572  1.00  0.00     0.164 HD
HETATM   61  C5Z ZID A 300       9.045 -37.309  10.317  1.00 24.83     0.027 A 
ENDBRANCH  52  55
ENDBRANCH  44  52
ENDBRANCH  38  41
BRANCH  39  62
HETATM   62  O2D ZID A 300       2.932 -32.909  13.805  1.00 23.60    -0.388 OA
ATOM     63  H2D ZID A 300       3.744 -33.182  14.216  1.00  0.00     0.210 HD
ENDBRANCH  39  62
BRANCH  40  64
HETATM   64  O3D ZID A 300       0.443 -33.854  13.893  1.00 26.13    -0.390 OA
ATOM     65  H3D ZID A 300       0.165 -32.979  14.141  1.00  0.00     0.210 HD
ENDBRANCH  40  64
ENDBRANCH  35  36
ENDBRANCH  34  35
ENDBRANCH   1  34
TORSDOF 19
ENDMDL
MODEL 5
REMARK VINA RESULT:      -9.2      4.292      8.781
REMARK  19 active torsions:
REMARK  status: ('A' for Active; 'I' for Inactive)
REMARK    1  A    between atoms: PA_1  and  O5B_4 
REMARK    2  A    between atoms: PA_1  and  O3_30 
REMARK    3  A    between atoms: O5B_4  and  C5B_5 
REMARK    4  A    between atoms: C5B_5  and  C4B_6 
REMARK    5  A    between atoms: C3B_8  and  O3B_9 
REMARK    6  A    between atoms: C2B_11  and  O2B_12 
REMARK    7  A    between atoms: C1B_14  and  N9A_15 
REMARK    8  A    between atoms: C6A_20  and  N6A_21 
REMARK    9  A    between atoms: O3_30  and  PN_31 
REMARK   10  A    between atoms: PN_31  and  O5D_34 
REMARK   11  A    between atoms: O5D_34  and  C5D_35 
REMARK   12  A    between atoms: C5D_35  and  C4D_36 
REMARK   13  A    between atoms: C3D_38  and  O3D_39 
REMARK   14  A    between atoms: C2D_41  and  O2D_42 
REMARK   15  A    between atoms: C1D_44  and  N1N_45 
REMARK   16  A    between atoms: C3N_47  and  C7N_48 
REMARK       I    between atoms: C7N_48  and  N7N_50 
REMARK   17  A    between atoms: C4N_53  and  C7Z_56 
REMARK   18  A    between atoms: C7Z_56  and  O7Z_57 
REMARK   19  A    between atoms: C7Z_56  and  C4Z_63 
ROOT
HETATM    1  PN  ZID A 300       1.116 -33.995  10.055  1.00 26.51     0.417 P 
HETATM    2  O1N ZID A 300      -0.016 -34.806   9.515  1.00 30.48    -0.624 OA
HETATM    3  O2N ZID A 300       2.498 -34.063   9.471  1.00 28.40    -0.624 OA
ENDROOT
BRANCH   1   4
HETATM    4  O3  ZID A 300       1.086 -34.270  11.665  1.00 30.29    -0.180 OA
BRANCH   4   5
HETATM    5  PA  ZID A 300       1.508 -35.651  12.456  1.00 28.62     0.417 P 
HETATM    6  O1A ZID A 300       0.224 -36.078  13.122  1.00 28.37    -0.624 OA
HETATM    7  O2A ZID A 300       2.311 -36.560  11.578  1.00 30.19    -0.624 OA
BRANCH   5   8
HETATM    8  O5B ZID A 300       2.563 -35.111  13.519  1.00 29.52    -0.287 OA
BRANCH   8   9
HETATM    9  C5B ZID A 300       2.607 -33.761  13.942  1.00 27.76     0.216 C 
BRANCH   9  10
HETATM   10  C4B ZID A 300       4.045 -33.383  13.672  1.00 27.48     0.180 C 
HETATM   11  O4B ZID A 300       4.830 -34.569  13.633  1.00 27.81    -0.353 OA
HETATM   12  C1B ZID A 300       5.857 -34.313  12.715  1.00 28.20     0.262 C 
HETATM   13  C2B ZID A 300       5.139 -33.623  11.548  1.00 28.50     0.198 C 
HETATM   14  C3B ZID A 300       4.220 -32.691  12.300  1.00 25.42     0.182 C 
BRANCH  12  15
HETATM   15  N9A ZID A 300       6.589 -35.481  12.230  1.00 26.08    -0.297 N 
HETATM   16  C8A ZID A 300       7.169 -35.607  11.025  1.00 24.53     0.188 A 
HETATM   17  N7A ZID A 300       7.812 -36.766  11.012  1.00 23.35    -0.346 N 
HETATM   18  C5A ZID A 300       7.686 -37.342  12.238  1.00 25.38     0.122 A 
ATOM     19  H7A ZID A 300       8.316 -37.159  10.217  1.00  0.00     0.167 HD
HETATM   20  C6A ZID A 300       8.149 -38.524  12.794  1.00 23.71     0.131 A 
HETATM   21  C4A ZID A 300       6.929 -36.503  13.001  1.00 23.66     0.142 A 
HETATM   22  N1A ZID A 300       7.799 -38.818  14.050  1.00 27.06    -0.337 N 
HETATM   23  C2A ZID A 300       7.064 -37.954  14.789  1.00 25.81     0.183 A 
ATOM     24  H1A ZID A 300       8.091 -39.706  14.458  1.00  0.00     0.168 HD
HETATM   25  N3A ZID A 300       6.621 -36.817  14.267  1.00 26.02    -0.336 N 
ATOM     26  H3A ZID A 300       6.048 -36.185  14.827  1.00  0.00     0.168 HD
BRANCH  20  27
HETATM   27  N6A ZID A 300       8.915 -39.389  12.089  1.00 26.06    -0.383 N 
ATOM     28 2H6A ZID A 300       9.727 -39.822  12.529  1.00  0.00     0.157 HD
ATOM     29 1H6A ZID A 300       8.690 -39.641  11.127  1.00  0.00     0.157 HD
ENDBRANCH  20  27
ENDBRANCH  12  15
BRANCH  13  30
HETATM   30  O2B ZID A 300       6.062 -32.925  10.696  1.00 34.28    -0.388 OA
ATOM     31  H2B ZID A 300       5.665 -32.186  10.251  1.00  0.00     0.210 HD
ENDBRANCH  13  30
BRANCH  14  32
HETATM   32  O3B ZID A 300       4.892 -31.470  12.517  1.00 26.39    -0.390 OA
ATOM     33  H3B ZID A 300       5.031 -31.378  13.452  1.00  0.00     0.210 HD
ENDBRANCH  14  32
ENDBRANCH   9  10
ENDBRANCH   8   9
ENDBRANCH   5   8
ENDBRANCH   4   5
ENDBRANCH   1   4
BRANCH   1  34
HETATM   34  O5D ZID A 300       0.742 -32.453  10.094  1.00 27.38    -0.287 OA
BRANCH  34  35
HETATM   35  C5D ZID A 300       0.321 -31.725   8.945  1.00 26.32     0.216 C 
BRANCH  35  36
HETATM   36  C4D ZID A 300       0.846 -30.291   9.046  1.00 26.54     0.180 C 
HETATM   37  O4D ZID A 300       0.023 -29.657  10.075  1.00 26.70    -0.353 OA
HETATM   38  C1D ZID A 300       0.889 -28.963  10.921  1.00 24.37     0.259 C 
HETATM   39  C2D ZID A 300       2.139 -29.863  10.954  1.00 23.83     0.198 C 
HETATM   40  C3D ZID A 300       2.323 -30.221   9.503  1.00 24.97     0.182 C 
BRANCH  38  41
HETATM   41  N1N ZID A 300       0.479 -28.767  12.291  1.00 25.28    -0.336 N 
HETATM   42  C2N ZID A 300      -0.046 -29.793  13.009  1.00 22.44     0.111 A 
HETATM   43  C3N ZID A 300      -0.344 -29.591  14.303  1.00 25.89     0.056 A 
HETATM   44  C4N ZID A 300      -0.059 -28.304  14.800  1.00 26.60    -0.007 A 
HETATM   45  C5N ZID A 300       0.565 -27.319  14.080  1.00 27.45     0.028 A 
HETATM   46  C6N ZID A 300       0.803 -27.592  12.788  1.00 24.23     0.094 A 
BRANCH  43  47
HETATM   47  C7N ZID A 300      -1.065 -30.674  15.118  1.00 28.02     0.251 C 
HETATM   48  O7N ZID A 300      -0.474 -31.704  15.495  1.00 26.84    -0.268 OA
HETATM   49  N7N ZID A 300      -2.384 -30.661  15.180  1.00 23.44    -0.366 N 
ATOM     50 2H7N ZID A 300      -2.868 -29.818  14.872  1.00  0.00     0.159 HD
ATOM     51 1H7N ZID A 300      -2.863 -31.381  15.722  1.00  0.00     0.159 HD
ENDBRANCH  43  47
BRANCH  44  52
HETATM   52  C7Z ZID A 300       0.001 -28.318  16.161  1.00 27.75     0.185 C 
BRANCH  52  53
HETATM   53  O7Z ZID A 300       1.223 -27.402  16.024  1.00 23.71    -0.386 OA
ATOM     54  H7Z ZID A 300       1.039 -27.119  16.911  1.00  0.00     0.210 HD
ENDBRANCH  52  53
BRANCH  52  55
HETATM   55  C4Z ZID A 300      -0.564 -27.412  17.176  1.00 23.40    -0.023 A 
HETATM   56  C3Z ZID A 300      -1.313 -27.880  18.228  1.00 23.67     0.027 A 
HETATM   57  C2Z ZID A 300      -1.658 -26.971  19.218  1.00 22.98     0.088 A 
HETATM   58  N1Z ZID A 300      -1.247 -25.678  19.185  1.00 25.57    -0.375 N 
HETATM   59  C6Z ZID A 300      -0.446 -25.207  18.204  1.00 26.04     0.088 A 
ATOM     60  H1Z ZID A 300      -1.551 -25.044  19.924  1.00  0.00     0.164 HD
HETATM   61  C5Z ZID A 300      -0.077 -26.072  17.198  1.00 24.83     0.027 A 
ENDBRANCH  52  55
ENDBRANCH  44  52
ENDBRANCH  38  41
BRANCH  39  62
HETATM   62  O2D ZID A 300       3.374 -29.301  11.497  1.00 23.60    -0.388 OA
ATOM     63  H2D ZID A 300       3.300 -28.357  11.578  1.00  0.00     0.210 HD
ENDBRANCH  39  62
BRANCH  40  64
HETATM   64  O3D ZID A 300       2.995 -29.089   8.869  1.00 26.13    -0.390 OA
ATOM     65  H3D ZID A 300       2.410 -28.663   8.253  1.00  0.00     0.210 HD
ENDBRANCH  40  64
ENDBRANCH  35  36
ENDBRANCH  34  35
ENDBRANCH   1  34
TORSDOF 19
ENDMDL
MODEL 6
REMARK VINA RESULT:      -9.2      4.073      8.657
REMARK  19 active torsions:
REMARK  status: ('A' for Active; 'I' for Inactive)
REMARK    1  A    between atoms: PA_1  and  O5B_4 
REMARK    2  A    between atoms: PA_1  and  O3_30 
REMARK    3  A    between atoms: O5B_4  and  C5B_5 
REMARK    4  A    between atoms: C5B_5  and  C4B_6 
REMARK    5  A    between atoms: C3B_8  and  O3B_9 
REMARK    6  A    between atoms: C2B_11  and  O2B_12 
REMARK    7  A    between atoms: C1B_14  and  N9A_15 
REMARK    8  A    between atoms: C6A_20  and  N6A_21 
REMARK    9  A    between atoms: O3_30  and  PN_31 
REMARK   10  A    between atoms: PN_31  and  O5D_34 
REMARK   11  A    between atoms: O5D_34  and  C5D_35 
REMARK   12  A    between atoms: C5D_35  and  C4D_36 
REMARK   13  A    between atoms: C3D_38  and  O3D_39 
REMARK   14  A    between atoms: C2D_41  and  O2D_42 
REMARK   15  A    between atoms: C1D_44  and  N1N_45 
REMARK   16  A    between atoms: C3N_47  and  C7N_48 
REMARK       I    between atoms: C7N_48  and  N7N_50 
REMARK   17  A    between atoms: C4N_53  and  C7Z_56 
REMARK   18  A    between atoms: C7Z_56  and  O7Z_57 
REMARK   19  A    between atoms: C7Z_56  and  C4Z_63 
ROOT
HETATM    1  PN  ZID A 300       0.193 -33.507   8.228  1.00 26.51     0.417 P 
HETATM    2  O1N ZID A 300      -0.690 -34.242   7.272  1.00 30.48    -0.624 OA
HETATM    3  O2N ZID A 300       1.672 -33.369   8.004  1.00 28.40    -0.624 OA
ENDROOT
BRANCH   1   4
HETATM    4  O3  ZID A 300      -0.179 -34.132   9.691  1.00 30.29    -0.180 OA
BRANCH   4   5
HETATM    5  PA  ZID A 300       0.608 -33.886  11.117  1.00 28.62     0.417 P 
HETATM    6  O1A ZID A 300       0.994 -32.429  11.055  1.00 28.37    -0.624 OA
HETATM    7  O2A ZID A 300      -0.143 -34.481  12.266  1.00 30.19    -0.624 OA
BRANCH   5   8
HETATM    8  O5B ZID A 300       1.880 -34.831  10.956  1.00 29.52    -0.287 OA
BRANCH   8   9
HETATM    9  C5B ZID A 300       1.939 -36.139  11.491  1.00 27.76     0.216 C 
BRANCH   9  10
HETATM   10  C4B ZID A 300       3.104 -36.046  12.448  1.00 27.48     0.180 C 
HETATM   11  O4B ZID A 300       3.993 -35.036  11.989  1.00 27.81    -0.353 OA
HETATM   12  C1B ZID A 300       4.565 -34.482  13.142  1.00 28.20     0.262 C 
HETATM   13  C2B ZID A 300       3.375 -34.322  14.098  1.00 28.50     0.198 C 
HETATM   14  C3B ZID A 300       2.660 -35.632  13.870  1.00 25.42     0.182 C 
BRANCH  12  15
HETATM   15  N9A ZID A 300       5.241 -33.198  12.971  1.00 26.08    -0.297 N 
HETATM   16  C8A ZID A 300       6.316 -32.772  13.654  1.00 24.53     0.188 A 
HETATM   17  N7A ZID A 300       6.682 -31.608  13.135  1.00 23.35    -0.346 N 
HETATM   18  C5A ZID A 300       5.869 -31.333  12.080  1.00 25.38     0.122 A 
ATOM     19  H7A ZID A 300       7.444 -31.019  13.471  1.00  0.00     0.167 HD
HETATM   20  C6A ZID A 300       5.793 -30.284  11.176  1.00 23.71     0.131 A 
HETATM   21  C4A ZID A 300       4.979 -32.360  11.977  1.00 23.66     0.142 A 
HETATM   22  N1A ZID A 300       4.820 -30.302  10.260  1.00 27.06    -0.337 N 
HETATM   23  C2A ZID A 300       3.965 -31.348  10.170  1.00 25.81     0.183 A 
ATOM     24  H1A ZID A 300       4.720 -29.515   9.618  1.00  0.00     0.168 HD
HETATM   25  N3A ZID A 300       4.033 -32.358  11.028  1.00 26.02    -0.336 N 
ATOM     26  H3A ZID A 300       3.369 -33.130  10.965  1.00  0.00     0.168 HD
BRANCH  20  27
HETATM   27  N6A ZID A 300       6.656 -29.243  11.221  1.00 26.06    -0.383 N 
ATOM     28 2H6A ZID A 300       7.452 -29.272  11.858  1.00  0.00     0.157 HD
ATOM     29 1H6A ZID A 300       6.547 -28.430  10.615  1.00  0.00     0.157 HD
ENDBRANCH  20  27
ENDBRANCH  12  15
BRANCH  13  30
HETATM   30  O2B ZID A 300       3.806 -34.153  15.458  1.00 34.28    -0.388 OA
ATOM     31  H2B ZID A 300       3.081 -34.052  16.064  1.00  0.00     0.210 HD
ENDBRANCH  13  30
BRANCH  14  32
HETATM   32  O3B ZID A 300       3.168 -36.588  14.775  1.00 26.39    -0.390 OA
ATOM     33  H3B ZID A 300       4.000 -36.895  14.435  1.00  0.00     0.210 HD
ENDBRANCH  14  32
ENDBRANCH   9  10
ENDBRANCH   8   9
ENDBRANCH   5   8
ENDBRANCH   4   5
ENDBRANCH   1   4
BRANCH   1  34
HETATM   34  O5D ZID A 300      -0.343 -32.036   8.480  1.00 27.38    -0.287 OA
BRANCH  34  35
HETATM   35  C5D ZID A 300       0.359 -30.869   8.062  1.00 26.32     0.216 C 
BRANCH  35  36
HETATM   36  C4D ZID A 300      -0.492 -29.637   8.379  1.00 26.54     0.180 C 
HETATM   37  O4D ZID A 300      -1.129 -29.935   9.661  1.00 26.70    -0.353 OA
HETATM   38  C1D ZID A 300      -0.991 -28.799  10.460  1.00 24.37     0.259 C 
HETATM   39  C2D ZID A 300       0.391 -28.253  10.053  1.00 23.83     0.198 C 
HETATM   40  C3D ZID A 300       0.351 -28.351   8.551  1.00 24.97     0.182 C 
BRANCH  38  41
HETATM   41  N1N ZID A 300      -0.962 -28.981  11.892  1.00 25.28    -0.336 N 
HETATM   42  C2N ZID A 300      -0.354 -30.067  12.438  1.00 22.44     0.111 A 
HETATM   43  C3N ZID A 300      -0.282 -30.161  13.776  1.00 25.89     0.056 A 
HETATM   44  C4N ZID A 300      -0.847 -29.090  14.494  1.00 26.60    -0.007 A 
HETATM   45  C5N ZID A 300      -1.363 -27.959  13.916  1.00 27.45     0.028 A 
HETATM   46  C6N ZID A 300      -1.423 -27.956  12.576  1.00 24.23     0.094 A 
BRANCH  43  47
HETATM   47  C7N ZID A 300       0.271 -31.430  14.442  1.00 28.02     0.251 C 
HETATM   48  O7N ZID A 300       1.488 -31.565  14.670  1.00 26.84    -0.268 OA
HETATM   49  N7N ZID A 300      -0.495 -32.503  14.515  1.00 23.44    -0.366 N 
ATOM     50 2H7N ZID A 300      -1.491 -32.393  14.329  1.00  0.00     0.159 HD
ATOM     51 1H7N ZID A 300      -0.127 -33.346  14.957  1.00  0.00     0.159 HD
ENDBRANCH  43  47
BRANCH  44  52
HETATM   52  C7Z ZID A 300      -0.373 -29.065  15.772  1.00 27.75     0.185 C 
BRANCH  52  53
HETATM   53  O7Z ZID A 300       0.879 -28.393  15.196  1.00 23.71    -0.386 OA
ATOM     54  H7Z ZID A 300       1.305 -28.614  16.016  1.00  0.00     0.210 HD
ENDBRANCH  52  53
BRANCH  52  55
HETATM   55  C4Z ZID A 300      -0.443 -28.036  16.823  1.00 23.40    -0.023 A 
HETATM   56  C3Z ZID A 300       0.036 -26.763  16.625  1.00 23.67     0.027 A 
HETATM   57  C2Z ZID A 300      -0.226 -25.824  17.611  1.00 22.98     0.088 A 
HETATM   58  N1Z ZID A 300      -0.958 -26.121  18.714  1.00 25.57    -0.375 N 
HETATM   59  C6Z ZID A 300      -1.507 -27.342  18.901  1.00 26.04     0.088 A 
ATOM     60  H1Z ZID A 300      -1.098 -25.401  19.424  1.00  0.00     0.164 HD
HETATM   61  C5Z ZID A 300      -1.275 -28.308  17.948  1.00 24.83     0.027 A 
ENDBRANCH  52  55
ENDBRANCH  44  52
ENDBRANCH  38  41
BRANCH  39  62
HETATM   62  O2D ZID A 300       0.739 -26.893  10.463  1.00 23.60    -0.388 OA
ATOM     63  H2D ZID A 300       0.279 -26.662  11.261  1.00  0.00     0.210 HD
ENDBRANCH  39  62
BRANCH  40  64
HETATM   64  O3D ZID A 300      -0.393 -27.190   8.069  1.00 26.13    -0.390 OA
ATOM     65  H3D ZID A 300      -0.940 -26.839   8.764  1.00  0.00     0.210 HD
ENDBRANCH  40  64
ENDBRANCH  35  36
ENDBRANCH  34  35
ENDBRANCH   1  34
TORSDOF 19
ENDMDL
MODEL 7
REMARK VINA RESULT:      -8.9      4.007      8.540
REMARK  19 active torsions:
REMARK  status: ('A' for Active; 'I' for Inactive)
REMARK    1  A    between atoms: PA_1  and  O5B_4 
REMARK    2  A    between atoms: PA_1  and  O3_30 
REMARK    3  A    between atoms: O5B_4  and  C5B_5 
REMARK    4  A    between atoms: C5B_5  and  C4B_6 
REMARK    5  A    between atoms: C3B_8  and  O3B_9 
REMARK    6  A    between atoms: C2B_11  and  O2B_12 
REMARK    7  A    between atoms: C1B_14  and  N9A_15 
REMARK    8  A    between atoms: C6A_20  and  N6A_21 
REMARK    9  A    between atoms: O3_30  and  PN_31 
REMARK   10  A    between atoms: PN_31  and  O5D_34 
REMARK   11  A    between atoms: O5D_34  and  C5D_35 
REMARK   12  A    between atoms: C5D_35  and  C4D_36 
REMARK   13  A    between atoms: C3D_38  and  O3D_39 
REMARK   14  A    between atoms: C2D_41  and  O2D_42 
REMARK   15  A    between atoms: C1D_44  and  N1N_45 
REMARK   16  A    between atoms: C3N_47  and  C7N_48 
REMARK       I    between atoms: C7N_48  and  N7N_50 
REMARK   17  A    between atoms: C4N_53  and  C7Z_56 
REMARK   18  A    between atoms: C7Z_56  and  O7Z_57 
REMARK   19  A    between atoms: C7Z_56  and  C4Z_63 
ROOT
HETATM    1  PN  ZID A 300       0.478 -33.479   8.587  1.00 26.51     0.417 P 
HETATM    2  O1N ZID A 300      -0.591 -34.245   9.295  1.00 30.48    -0.624 OA
HETATM    3  O2N ZID A 300       0.769 -33.677   7.127  1.00 28.40    -0.624 OA
ENDROOT
BRANCH   1   4
HETATM    4  O3  ZID A 300       1.799 -33.649   9.533  1.00 30.29    -0.180 OA
BRANCH   4   5
HETATM    5  PA  ZID A 300       1.862 -33.657  11.178  1.00 28.62     0.417 P 
HETATM    6  O1A ZID A 300       2.610 -32.388  11.504  1.00 28.37    -0.624 OA
HETATM    7  O2A ZID A 300       0.531 -33.994  11.775  1.00 30.19    -0.624 OA
BRANCH   5   8
HETATM    8  O5B ZID A 300       2.752 -34.946  11.466  1.00 29.52    -0.287 OA
BRANCH   8   9
HETATM    9  C5B ZID A 300       2.349 -35.978  12.345  1.00 27.76     0.216 C 
BRANCH   9  10
HETATM   10  C4B ZID A 300       3.534 -36.093  13.276  1.00 27.48     0.180 C 
HETATM   11  O4B ZID A 300       4.691 -35.612  12.604  1.00 27.81    -0.353 OA
HETATM   12  C1B ZID A 300       5.500 -35.049  13.599  1.00 28.20     0.262 C 
HETATM   13  C2B ZID A 300       4.515 -34.248  14.461  1.00 28.50     0.198 C 
HETATM   14  C3B ZID A 300       3.366 -35.224  14.544  1.00 25.42     0.182 C 
BRANCH  12  15
HETATM   15  N9A ZID A 300       6.577 -34.177  13.134  1.00 26.08    -0.297 N 
HETATM   16  C8A ZID A 300       7.798 -34.066  13.682  1.00 24.53     0.188 A 
HETATM   17  N7A ZID A 300       8.508 -33.253  12.912  1.00 23.35    -0.346 N 
HETATM   18  C5A ZID A 300       7.746 -32.901  11.841  1.00 25.38     0.122 A 
ATOM     19  H7A ZID A 300       9.463 -32.943  13.093  1.00  0.00     0.167 HD
HETATM   20  C6A ZID A 300       7.965 -32.100  10.731  1.00 23.71     0.131 A 
HETATM   21  C4A ZID A 300       6.537 -33.514  11.987  1.00 23.66     0.142 A 
HETATM   22  N1A ZID A 300       6.963 -31.926   9.863  1.00 27.06    -0.337 N 
HETATM   23  C2A ZID A 300       5.781 -32.566  10.025  1.00 25.81     0.183 A 
ATOM     24  H1A ZID A 300       7.091 -31.301   9.067  1.00  0.00     0.168 HD
HETATM   25  N3A ZID A 300       5.564 -33.339  11.082  1.00 26.02    -0.336 N 
ATOM     26  H3A ZID A 300       4.661 -33.797  11.206  1.00  0.00     0.168 HD
BRANCH  20  27
HETATM   27  N6A ZID A 300       9.148 -31.477  10.526  1.00 26.06    -0.383 N 
ATOM     28 2H6A ZID A 300       9.951 -31.709  11.111  1.00  0.00     0.157 HD
ATOM     29 1H6A ZID A 300       9.270 -30.790   9.782  1.00  0.00     0.157 HD
ENDBRANCH  20  27
ENDBRANCH  12  15
BRANCH  13  30
HETATM   30  O2B ZID A 300       5.071 -33.933  15.747  1.00 34.28    -0.388 OA
ATOM     31  H2B ZID A 300       4.411 -33.873  16.429  1.00  0.00     0.210 HD
ENDBRANCH  13  30
BRANCH  14  32
HETATM   32  O3B ZID A 300       3.560 -36.057  15.666  1.00 26.39    -0.390 OA
ATOM     33  H3B ZID A 300       3.783 -35.502  16.404  1.00  0.00     0.210 HD
ENDBRANCH  14  32
ENDBRANCH   9  10
ENDBRANCH   8   9
ENDBRANCH   5   8
ENDBRANCH   4   5
ENDBRANCH   1   4
BRANCH   1  34
HETATM   34  O5D ZID A 300       0.278 -31.916   8.777  1.00 27.38    -0.287 OA
BRANCH  34  35
HETATM   35  C5D ZID A 300      -0.320 -31.082   7.790  1.00 26.32     0.216 C 
BRANCH  35  36
HETATM   36  C4D ZID A 300      -0.164 -29.620   8.214  1.00 26.54     0.180 C 
HETATM   37  O4D ZID A 300      -0.927 -29.502   9.456  1.00 26.70    -0.353 OA
HETATM   38  C1D ZID A 300      -0.130 -28.799  10.361  1.00 24.37     0.259 C 
HETATM   39  C2D ZID A 300       1.292 -29.283  10.020  1.00 23.83     0.198 C 
HETATM   40  C3D ZID A 300       1.303 -29.233   8.516  1.00 24.97     0.182 C 
BRANCH  38  41
HETATM   41  N1N ZID A 300      -0.329 -29.047  11.769  1.00 25.28    -0.336 N 
HETATM   42  C2N ZID A 300       0.164 -30.172  12.349  1.00 22.44     0.111 A 
HETATM   43  C3N ZID A 300       0.025 -30.329  13.675  1.00 25.89     0.056 A 
HETATM   44  C4N ZID A 300      -0.624 -29.276  14.349  1.00 26.60    -0.007 A 
HETATM   45  C5N ZID A 300      -1.021 -28.107  13.754  1.00 27.45     0.028 A 
HETATM   46  C6N ZID A 300      -0.871 -28.041  12.423  1.00 24.23     0.094 A 
BRANCH  43  47
HETATM   47  C7N ZID A 300       0.441 -31.641  14.356  1.00 28.02     0.251 C 
HETATM   48  O7N ZID A 300       1.637 -31.899  14.590  1.00 26.84    -0.268 OA
HETATM   49  N7N ZID A 300      -0.431 -32.629  14.436  1.00 23.44    -0.366 N 
ATOM     50 2H7N ZID A 300      -1.410 -32.419  14.245  1.00  0.00     0.159 HD
ATOM     51 1H7N ZID A 300      -0.154 -33.501  14.888  1.00  0.00     0.159 HD
ENDBRANCH  43  47
BRANCH  44  52
HETATM   52  C7Z ZID A 300      -0.356 -29.323  15.684  1.00 27.75     0.185 C 
BRANCH  52  53
HETATM   53  O7Z ZID A 300       0.804 -28.364  15.390  1.00 23.71    -0.386 OA
ATOM     54  H7Z ZID A 300       1.381 -29.076  15.641  1.00  0.00     0.210 HD
ENDBRANCH  52  53
BRANCH  52  55
HETATM   55  C4Z ZID A 300      -0.784 -28.463  16.801  1.00 23.40    -0.023 A 
HETATM   56  C3Z ZID A 300      -1.534 -28.949  17.844  1.00 23.67     0.027 A 
HETATM   57  C2Z ZID A 300      -1.744 -28.105  18.925  1.00 22.98     0.088 A 
HETATM   58  N1Z ZID A 300      -1.205 -26.861  18.984  1.00 25.57    -0.375 N 
HETATM   59  C6Z ZID A 300      -0.401 -26.382  18.009  1.00 26.04     0.088 A 
ATOM     60  H1Z ZID A 300      -1.414 -26.270  19.789  1.00  0.00     0.164 HD
HETATM   61  C5Z ZID A 300      -0.163 -27.184  16.915  1.00 24.83     0.027 A 
ENDBRANCH  52  55
ENDBRANCH  44  52
ENDBRANCH  38  41
BRANCH  39  62
HETATM   62  O2D ZID A 300       2.421 -28.528  10.561  1.00 23.60    -0.388 OA
ATOM     63  H2D ZID A 300       2.335 -27.607  10.346  1.00  0.00     0.210 HD
ENDBRANCH  39  62
BRANCH  40  64
HETATM   64  O3D ZID A 300       1.547 -27.842   8.140  1.00 26.13    -0.390 OA
ATOM     65  H3D ZID A 300       1.888 -27.797   7.254  1.00  0.00     0.210 HD
ENDBRANCH  40  64
ENDBRANCH  35  36
ENDBRANCH  34  35
ENDBRANCH   1  34
TORSDOF 19
ENDMDL
MODEL 8
REMARK VINA RESULT:      -8.8      4.418      9.195
REMARK  19 active torsions:
REMARK  status: ('A' for Active; 'I' for Inactive)
REMARK    1  A    between atoms: PA_1  and  O5B_4 
REMARK    2  A    between atoms: PA_1  and  O3_30 
REMARK    3  A    between atoms: O5B_4  and  C5B_5 
REMARK    4  A    between atoms: C5B_5  and  C4B_6 
REMARK    5  A    between atoms: C3B_8  and  O3B_9 
REMARK    6  A    between atoms: C2B_11  and  O2B_12 
REMARK    7  A    between atoms: C1B_14  and  N9A_15 
REMARK    8  A    between atoms: C6A_20  and  N6A_21 
REMARK    9  A    between atoms: O3_30  and  PN_31 
REMARK   10  A    between atoms: PN_31  and  O5D_34 
REMARK   11  A    between atoms: O5D_34  and  C5D_35 
REMARK   12  A    between atoms: C5D_35  and  C4D_36 
REMARK   13  A    between atoms: C3D_38  and  O3D_39 
REMARK   14  A    between atoms: C2D_41  and  O2D_42 
REMARK   15  A    between atoms: C1D_44  and  N1N_45 
REMARK   16  A    between atoms: C3N_47  and  C7N_48 
REMARK       I    between atoms: C7N_48  and  N7N_50 
REMARK   17  A    between atoms: C4N_53  and  C7Z_56 
REMARK   18  A    between atoms: C7Z_56  and  O7Z_57 
REMARK   19  A    between atoms: C7Z_56  and  C4Z_63 
ROOT
HETATM    1  PN  ZID A 300       3.002 -34.235  11.190  1.00 26.51     0.417 P 
HETATM    2  O1N ZID A 300       4.000 -35.167  10.583  1.00 30.48    -0.624 OA
HETATM    3  O2N ZID A 300       3.389 -33.211  12.218  1.00 28.40    -0.624 OA
ENDROOT
BRANCH   1   4
HETATM    4  O3  ZID A 300       1.780 -35.203  11.677  1.00 30.29    -0.180 OA
BRANCH   4   5
HETATM    5  PA  ZID A 300       1.162 -35.353  13.196  1.00 28.62     0.417 P 
HETATM    6  O1A ZID A 300       0.526 -34.009  13.447  1.00 28.37    -0.624 OA
HETATM    7  O2A ZID A 300       0.426 -36.646  13.362  1.00 30.19    -0.624 OA
BRANCH   5   8
HETATM    8  O5B ZID A 300       2.481 -35.544  14.068  1.00 29.52    -0.287 OA
BRANCH   8   9
HETATM    9  C5B ZID A 300       3.221 -36.750  14.090  1.00 27.76     0.216 C 
BRANCH   9  10
HETATM   10  C4B ZID A 300       4.494 -36.337  14.791  1.00 27.48     0.180 C 
HETATM   11  O4B ZID A 300       5.601 -36.674  13.964  1.00 27.81    -0.353 OA
HETATM   12  C1B ZID A 300       6.575 -35.699  14.219  1.00 28.20     0.262 C 
HETATM   13  C2B ZID A 300       5.781 -34.386  14.236  1.00 28.50     0.198 C 
HETATM   14  C3B ZID A 300       4.564 -34.810  15.023  1.00 25.42     0.182 C 
BRANCH  12  15
HETATM   15  N9A ZID A 300       7.664 -35.611  13.248  1.00 26.08    -0.297 N 
HETATM   16  C8A ZID A 300       8.901 -35.147  13.487  1.00 24.53     0.188 A 
HETATM   17  N7A ZID A 300       9.614 -35.326  12.384  1.00 23.35    -0.346 N 
HETATM   18  C5A ZID A 300       8.834 -35.962  11.467  1.00 25.38     0.122 A 
ATOM     19  H7A ZID A 300      10.582 -35.036  12.245  1.00  0.00     0.167 HD
HETATM   20  C6A ZID A 300       9.047 -36.404  10.171  1.00 23.71     0.131 A 
HETATM   21  C4A ZID A 300       7.612 -36.153  12.040  1.00 23.66     0.142 A 
HETATM   22  N1A ZID A 300       8.028 -36.968   9.515  1.00 27.06    -0.337 N 
HETATM   23  C2A ZID A 300       6.833 -37.165  10.120  1.00 25.81     0.183 A 
ATOM     24  H1A ZID A 300       8.153 -37.256   8.544  1.00  0.00     0.168 HD
HETATM   25  N3A ZID A 300       6.622 -36.748  11.362  1.00 26.02    -0.336 N 
ATOM     26  H3A ZID A 300       5.709 -36.881  11.799  1.00  0.00     0.168 HD
BRANCH  20  27
HETATM   27  N6A ZID A 300      10.242 -36.253   9.555  1.00 26.06    -0.383 N 
ATOM     28 2H6A ZID A 300      11.055 -35.952  10.092  1.00  0.00     0.157 HD
ATOM     29 1H6A ZID A 300      10.362 -36.453   8.562  1.00  0.00     0.157 HD
ENDBRANCH  20  27
ENDBRANCH  12  15
BRANCH  13  30
HETATM   30  O2B ZID A 300       6.516 -33.330  14.874  1.00 34.28    -0.388 OA
ATOM     31  H2B ZID A 300       7.454 -33.400  14.737  1.00  0.00     0.210 HD
ENDBRANCH  13  30
BRANCH  14  32
HETATM   32  O3B ZID A 300       4.815 -34.594  16.394  1.00 26.39    -0.390 OA
ATOM     33  H3B ZID A 300       3.976 -34.543  16.837  1.00  0.00     0.210 HD
ENDBRANCH  14  32
ENDBRANCH   9  10
ENDBRANCH   8   9
ENDBRANCH   5   8
ENDBRANCH   4   5
ENDBRANCH   1   4
BRANCH   1  34
HETATM   34  O5D ZID A 300       2.211 -33.440  10.067  1.00 27.38    -0.287 OA
BRANCH  34  35
HETATM   35  C5D ZID A 300       2.502 -32.091   9.718  1.00 26.32     0.216 C 
BRANCH  35  36
HETATM   36  C4D ZID A 300       1.193 -31.367   9.394  1.00 26.54     0.180 C 
HETATM   37  O4D ZID A 300       0.441 -31.363  10.648  1.00 26.70    -0.353 OA
HETATM   38  C1D ZID A 300      -0.061 -30.073  10.820  1.00 24.37     0.259 C 
HETATM   39  C2D ZID A 300       1.055 -29.184  10.237  1.00 23.83     0.198 C 
HETATM   40  C3D ZID A 300       1.408 -29.898   8.959  1.00 24.97     0.182 C 
BRANCH  38  41
HETATM   41  N1N ZID A 300      -0.298 -29.614  12.168  1.00 25.28    -0.336 N 
HETATM   42  C2N ZID A 300      -1.442 -29.948  12.820  1.00 22.44     0.111 A 
HETATM   43  C3N ZID A 300      -1.591 -29.567  14.099  1.00 25.89     0.056 A 
HETATM   44  C4N ZID A 300      -0.510 -28.853  14.652  1.00 26.60    -0.007 A 
HETATM   45  C5N ZID A 300       0.673 -28.618  14.003  1.00 27.45     0.028 A 
HETATM   46  C6N ZID A 300       0.731 -29.007  12.721  1.00 24.23     0.094 A 
BRANCH  43  47
HETATM   47  C7N ZID A 300      -2.919 -29.800  14.835  1.00 28.02     0.251 C 
HETATM   48  O7N ZID A 300      -3.014 -30.639  15.750  1.00 26.84    -0.268 OA
HETATM   49  N7N ZID A 300      -4.034 -29.322  14.315  1.00 23.44    -0.366 N 
ATOM     50 2H7N ZID A 300      -3.956 -28.634  13.566  1.00  0.00     0.159 HD
ATOM     51 1H7N ZID A 300      -4.916 -29.477  14.804  1.00  0.00     0.159 HD
ENDBRANCH  43  47
BRANCH  44  52
HETATM   52  C7Z ZID A 300      -0.566 -28.876  16.014  1.00 27.75     0.185 C 
BRANCH  52  53
HETATM   53  O7Z ZID A 300       0.967 -28.851  15.985  1.00 23.71    -0.386 OA
ATOM     54  H7Z ZID A 300       0.912 -29.631  15.446  1.00  0.00     0.210 HD
ENDBRANCH  52  53
BRANCH  52  55
HETATM   55  C4Z ZID A 300      -0.565 -27.794  17.013  1.00 23.40    -0.023 A 
HETATM   56  C3Z ZID A 300      -0.084 -26.540  16.723  1.00 23.67     0.027 A 
HETATM   57  C2Z ZID A 300      -0.280 -25.548  17.673  1.00 22.98     0.088 A 
HETATM   58  N1Z ZID A 300      -0.953 -25.778  18.829  1.00 25.57    -0.375 N 
HETATM   59  C6Z ZID A 300      -1.504 -26.980  19.108  1.00 26.04     0.088 A 
ATOM     60  H1Z ZID A 300      -1.045 -25.021  19.507  1.00  0.00     0.164 HD
HETATM   61  C5Z ZID A 300      -1.337 -27.997  18.195  1.00 24.83     0.027 A 
ENDBRANCH  52  55
ENDBRANCH  44  52
ENDBRANCH  38  41
BRANCH  39  62
HETATM   62  O2D ZID A 300       0.745 -27.782   9.966  1.00 23.60    -0.388 OA
ATOM     63  H2D ZID A 300       0.213 -27.708   9.182  1.00  0.00     0.210 HD
ENDBRANCH  39  62
BRANCH  40  64
HETATM   64  O3D ZID A 300       0.406 -29.512   7.968  1.00 26.13    -0.390 OA
ATOM     65  H3D ZID A 300      -0.329 -30.114   7.993  1.00  0.00     0.210 HD
ENDBRANCH  40  64
ENDBRANCH  35  36
ENDBRANCH  34  35
ENDBRANCH   1  34
TORSDOF 19
ENDMDL
MODEL 9
REMARK VINA RESULT:      -8.8      4.158      8.769
REMARK  19 active torsions:
REMARK  status: ('A' for Active; 'I' for Inactive)
REMARK    1  A    between atoms: PA_1  and  O5B_4 
REMARK    2  A    between atoms: PA_1  and  O3_30 
REMARK    3  A    between atoms: O5B_4  and  C5B_5 
REMARK    4  A    between atoms: C5B_5  and  C4B_6 
REMARK    5  A    between atoms: C3B_8  and  O3B_9 
REMARK    6  A    between atoms: C2B_11  and  O2B_12 
REMARK    7  A    between atoms: C1B_14  and  N9A_15 
REMARK    8  A    between atoms: C6A_20  and  N6A_21 
REMARK    9  A    between atoms: O3_30  and  PN_31 
REMARK   10  A    between atoms: PN_31  and  O5D_34 
REMARK   11  A    between atoms: O5D_34  and  C5D_35 
REMARK   12  A    between atoms: C5D_35  and  C4D_36 
REMARK   13  A    between atoms: C3D_38  and  O3D_39 
REMARK   14  A    between atoms: C2D_41  and  O2D_42 
REMARK   15  A    between atoms: C1D_44  and  N1N_45 
REMARK   16  A    between atoms: C3N_47  and  C7N_48 
REMARK       I    between atoms: C7N_48  and  N7N_50 
REMARK   17  A    between atoms: C4N_53  and  C7Z_56 
REMARK   18  A    between atoms: C7Z_56  and  O7Z_57 
REMARK   19  A    between atoms: C7Z_56  and  C4Z_63 
ROOT
HETATM    1  PN  ZID A 300       5.538 -32.905   9.981  1.00 26.51     0.417 P 
HETATM    2  O1N ZID A 300       5.849 -33.099  11.429  1.00 30.48    -0.624 OA
HETATM    3  O2N ZID A 300       5.297 -34.063   9.054  1.00 28.40    -0.624 OA
ENDROOT
BRANCH   1   4
HETATM    4  O3  ZID A 300       6.697 -31.886   9.445  1.00 30.29    -0.180 OA
BRANCH   4   5
HETATM    5  PA  ZID A 300       8.327 -32.033   9.629  1.00 28.62     0.417 P 
HETATM    6  O1A ZID A 300       8.875 -31.478   8.338  1.00 28.37    -0.624 OA
HETATM    7  O2A ZID A 300       8.770 -31.553  10.976  1.00 30.19    -0.624 OA
BRANCH   5   8
HETATM    8  O5B ZID A 300       8.506 -33.614   9.705  1.00 29.52    -0.287 OA
BRANCH   8   9
HETATM    9  C5B ZID A 300       9.708 -34.232  10.125  1.00 27.76     0.216 C 
BRANCH   9  10
HETATM   10  C4B ZID A 300       9.217 -35.549  10.681  1.00 27.48     0.180 C 
HETATM   11  O4B ZID A 300       8.056 -35.309  11.466  1.00 27.81    -0.353 OA
HETATM   12  C1B ZID A 300       7.262 -36.455  11.328  1.00 28.20     0.262 C 
HETATM   13  C2B ZID A 300       7.333 -36.769   9.828  1.00 28.50     0.198 C 
HETATM   14  C3B ZID A 300       8.801 -36.536   9.566  1.00 25.42     0.182 C 
BRANCH  12  15
HETATM   15  N9A ZID A 300       5.867 -36.324  11.744  1.00 26.08    -0.297 N 
HETATM   16  C8A ZID A 300       4.789 -36.629  11.005  1.00 24.53     0.188 A 
HETATM   17  N7A ZID A 300       3.720 -36.467  11.773  1.00 23.35    -0.346 N 
HETATM   18  C5A ZID A 300       4.137 -36.116  13.020  1.00 25.38     0.122 A 
ATOM     19  H7A ZID A 300       2.750 -36.583  11.479  1.00  0.00     0.167 HD
HETATM   20  C6A ZID A 300       3.478 -35.834  14.207  1.00 23.71     0.131 A 
HETATM   21  C4A ZID A 300       5.498 -36.053  12.988  1.00 23.66     0.142 A 
HETATM   22  N1A ZID A 300       4.204 -35.471  15.269  1.00 27.06    -0.337 N 
HETATM   23  C2A ZID A 300       5.556 -35.440  15.211  1.00 25.81     0.183 A 
ATOM     24  H1A ZID A 300       3.732 -35.214  16.136  1.00  0.00     0.168 HD
HETATM   25  N3A ZID A 300       6.196 -35.713  14.080  1.00 26.02    -0.336 N 
ATOM     26  H3A ZID A 300       7.214 -35.663  14.043  1.00  0.00     0.168 HD
BRANCH  20  27
HETATM   27  N6A ZID A 300       2.129 -35.892  14.302  1.00 26.06    -0.383 N 
ATOM     28 2H6A ZID A 300       1.581 -35.033  14.263  1.00  0.00     0.157 HD
ATOM     29 1H6A ZID A 300       1.636 -36.781  14.392  1.00  0.00     0.157 HD
ENDBRANCH  20  27
ENDBRANCH  12  15
BRANCH  13  30
HETATM   30  O2B ZID A 300       6.926 -38.118   9.548  1.00 34.28    -0.388 OA
ATOM     31  H2B ZID A 300       7.525 -38.570   8.966  1.00  0.00     0.210 HD
ENDBRANCH  13  30
BRANCH  14  32
HETATM   32  O3B ZID A 300       9.496 -37.744   9.780  1.00 26.39    -0.390 OA
ATOM     33  H3B ZID A 300      10.262 -37.742   9.218  1.00  0.00     0.210 HD
ENDBRANCH  14  32
ENDBRANCH   9  10
ENDBRANCH   8   9
ENDBRANCH   5   8
ENDBRANCH   4   5
ENDBRANCH   1   4
BRANCH   1  34
HETATM   34  O5D ZID A 300       4.296 -31.937   9.790  1.00 27.38    -0.287 OA
BRANCH  34  35
HETATM   35  C5D ZID A 300       2.958 -32.405   9.652  1.00 26.32     0.216 C 
BRANCH  35  36
HETATM   36  C4D ZID A 300       2.623 -33.309  10.842  1.00 26.54     0.180 C 
HETATM   37  O4D ZID A 300       2.629 -32.423  12.005  1.00 26.70    -0.353 OA
HETATM   38  C1D ZID A 300       1.487 -32.719  12.750  1.00 24.37     0.259 C 
HETATM   39  C2D ZID A 300       0.443 -33.058  11.668  1.00 23.83     0.198 C 
HETATM   40  C3D ZID A 300       1.219 -33.949  10.735  1.00 24.97     0.182 C 
BRANCH  38  41
HETATM   41  N1N ZID A 300       0.920 -31.667  13.561  1.00 25.28    -0.336 N 
HETATM   42  C2N ZID A 300       0.662 -30.445  13.027  1.00 22.44     0.111 A 
HETATM   43  C3N ZID A 300       0.064 -29.519  13.793  1.00 25.89     0.056 A 
HETATM   44  C4N ZID A 300      -0.255 -29.925  15.103  1.00 26.60    -0.007 A 
HETATM   45  C5N ZID A 300      -0.074 -31.196  15.584  1.00 27.45     0.028 A 
HETATM   46  C6N ZID A 300       0.553 -32.053  14.765  1.00 24.23     0.094 A 
BRANCH  43  47
HETATM   47  C7N ZID A 300      -0.124 -28.083  13.281  1.00 28.02     0.251 C 
HETATM   48  O7N ZID A 300      -1.049 -27.789  12.500  1.00 26.84    -0.268 OA
HETATM   49  N7N ZID A 300       0.856 -27.212  13.434  1.00 23.44    -0.366 N 
ATOM     50 2H7N ZID A 300       1.613 -27.452  14.074  1.00  0.00     0.159 HD
ATOM     51 1H7N ZID A 300       0.731 -26.259  13.093  1.00  0.00     0.159 HD
ENDBRANCH  43  47
BRANCH  44  52
HETATM   52  C7Z ZID A 300      -1.196 -29.102  15.646  1.00 27.75     0.185 C 
BRANCH  52  53
HETATM   53  O7Z ZID A 300      -1.675 -30.324  16.438  1.00 23.71    -0.386 OA
ATOM     54  H7Z ZID A 300      -1.104 -30.838  15.880  1.00  0.00     0.210 HD
ENDBRANCH  52  53
BRANCH  52  55
HETATM   55  C4Z ZID A 300      -1.201 -28.298  16.880  1.00 23.40    -0.023 A 
HETATM   56  C3Z ZID A 300      -1.699 -28.790  18.063  1.00 23.67     0.027 A 
HETATM   57  C2Z ZID A 300      -1.507 -28.022  19.202  1.00 22.98     0.088 A 
HETATM   58  N1Z ZID A 300      -0.823 -26.850  19.176  1.00 25.57    -0.375 N 
HETATM   59  C6Z ZID A 300      -0.256 -26.378  18.043  1.00 26.04     0.088 A 
ATOM     60  H1Z ZID A 300      -0.734 -26.310  20.037  1.00  0.00     0.164 HD
HETATM   61  C5Z ZID A 300      -0.419 -27.106  16.886  1.00 24.83     0.027 A 
ENDBRANCH  52  55
ENDBRANCH  44  52
ENDBRANCH  38  41
BRANCH  39  62
HETATM   62  O2D ZID A 300      -0.792 -33.716  12.088  1.00 23.60    -0.388 OA
ATOM     63  H2D ZID A 300      -1.491 -33.080  12.175  1.00  0.00     0.210 HD
ENDBRANCH  39  62
BRANCH  40  64
HETATM   64  O3D ZID A 300       1.224 -35.283  11.330  1.00 26.13    -0.390 OA
ATOM     65  H3D ZID A 300       1.152 -35.946  10.653  1.00  0.00     0.210 HD
ENDBRANCH  40  64
ENDBRANCH  35  36
ENDBRANCH  34  35
ENDBRANCH   1  34
TORSDOF 19
ENDMDL
