MODEL 1
REMARK VINA RESULT:     -10.1      0.000      0.000
REMARK  19 active torsions:
REMARK  status: ('A' for Active; 'I' for Inactive)
REMARK    1  A    between atoms: PA_1  and  O5B_4 
REMARK    2  A    between atoms: PA_1  and  O3_30 
REMARK    3  A    between atoms: O5B_4  and  C5B_5 
REMARK    4  A    between atoms: C5B_5  and  C4B_6 
REMARK    5  A    between atoms: C3B_8  and  O3B_9 
REMARK    6  A    between atoms: C2B_11  and  O2B_12 
REMARK    7  A    between atoms: C1B_14  and  N9A_15 
REMARK    8  A    between atoms: C6A_20  and  N6A_21 
REMARK    9  A    between atoms: O3_30  and  PN_31 
REMARK   10  A    between atoms: PN_31  and  O5D_34 
REMARK   11  A    between atoms: O5D_34  and  C5D_35 
REMARK   12  A    between atoms: C5D_35  and  C4D_36 
REMARK   13  A    between atoms: C3D_38  and  O3D_39 
REMARK   14  A    between atoms: C2D_41  and  O2D_42 
REMARK   15  A    between atoms: C1D_44  and  N1N_45 
REMARK   16  A    between atoms: C3N_47  and  C7N_48 
REMARK       I    between atoms: C7N_48  and  N7N_50 
REMARK   17  A    between atoms: C4N_53  and  C7Z_56 
REMARK   18  A    between atoms: C7Z_56  and  O7Z_57 
REMARK   19  A    between atoms: C7Z_56  and  C4Z_63 
ROOT
HETATM    1  PN  ZID A 300       1.207 -31.641   8.899  1.00 26.51     0.417 P 
HETATM    2  O1N ZID A 300       1.580 -32.694   7.906  1.00 30.48    -0.624 OA
HETATM    3  O2N ZID A 300       2.173 -30.578   9.337  1.00 28.40    -0.624 OA
ENDROOT
BRANCH   1   4
HETATM    4  O3  ZID A 300       0.554 -32.468  10.148  1.00 30.29    -0.180 OA
BRANCH   4   5
HETATM    5  PA  ZID A 300       0.662 -34.084  10.448  1.00 28.62     0.417 P 
HETATM    6  O1A ZID A 300       0.102 -34.217  11.842  1.00 28.37    -0.624 OA
HETATM    7  O2A ZID A 300       0.163 -34.889   9.289  1.00 30.19    -0.624 OA
BRANCH   5   8
HETATM    8  O5B ZID A 300       2.238 -34.315  10.430  1.00 29.52    -0.287 OA
BRANCH   8   9
HETATM    9  C5B ZID A 300       3.150 -33.448  11.075  1.00 27.76     0.216 C 
BRANCH   9  10
HETATM   10  C4B ZID A 300       3.432 -34.177  12.369  1.00 27.48     0.180 C 
HETATM   11  O4B ZID A 300       4.351 -35.231  12.108  1.00 27.81    -0.353 OA
HETATM   12  C1B ZID A 300       5.115 -35.364  13.275  1.00 28.20     0.262 C 
HETATM   13  C2B ZID A 300       5.434 -33.915  13.669  1.00 28.50     0.198 C 
HETATM   14  C3B ZID A 300       4.096 -33.261  13.423  1.00 25.42     0.182 C 
BRANCH  12  15
HETATM   15  N9A ZID A 300       6.353 -36.129  13.148  1.00 26.08    -0.297 N 
HETATM   16  C8A ZID A 300       6.959 -36.822  14.126  1.00 24.53     0.188 A 
HETATM   17  N7A ZID A 300       7.992 -37.454  13.586  1.00 23.35    -0.346 N 
HETATM   18  C5A ZID A 300       7.998 -37.203  12.248  1.00 25.38     0.122 A 
ATOM     19  H7A ZID A 300       8.669 -38.029  14.088  1.00  0.00     0.167 HD
HETATM   20  C6A ZID A 300       8.817 -37.598  11.202  1.00 23.71     0.131 A 
HETATM   21  C4A ZID A 300       6.941 -36.383  11.987  1.00 23.66     0.142 A 
HETATM   22  N1A ZID A 300       8.562 -37.124   9.979  1.00 27.06    -0.337 N 
HETATM   23  C2A ZID A 300       7.491 -36.329   9.748  1.00 25.81     0.183 A 
ATOM     24  H1A ZID A 300       9.184 -37.366   9.207  1.00  0.00     0.168 HD
HETATM   25  N3A ZID A 300       6.698 -35.949  10.743  1.00 26.02    -0.336 N 
ATOM     26  H3A ZID A 300       5.908 -35.330  10.560  1.00  0.00     0.168 HD
BRANCH  20  27
HETATM   27  N6A ZID A 300       9.873 -38.421  11.399  1.00 26.06    -0.383 N 
ATOM     28 2H6A ZID A 300      10.812 -38.110  11.148  1.00  0.00     0.157 HD
ATOM     29 1H6A ZID A 300       9.762 -39.346  11.814  1.00  0.00     0.157 HD
ENDBRANCH  20  27
ENDBRANCH  12  15
BRANCH  13  30
HETATM   30  O2B ZID A 300       5.856 -33.819  15.039  1.00 34.28    -0.388 OA
ATOM     31  H2B ZID A 300       6.542 -34.440  15.257  1.00  0.00     0.210 HD
ENDBRANCH  13  30
BRANCH  14  32
HETATM   32  O3B ZID A 300       3.330 -33.340  14.604  1.00 26.39    -0.390 OA
ATOM     33  H3B ZID A 300       3.266 -34.256  14.848  1.00  0.00     0.210 HD
ENDBRANCH  14  32
ENDBRANCH   9  10
ENDBRANCH   8   9
ENDBRANCH   5   8
ENDBRANCH   4   5
ENDBRANCH   1   4
BRANCH   1  34
HETATM   34  O5D ZID A 300      -0.103 -30.871   8.444  1.00 27.38    -0.287 OA
BRANCH  34  35
HETATM   35  C5D ZID A 300      -0.122 -29.933   7.372  1.00 26.32     0.216 C 
BRANCH  35  36
HETATM   36  C4D ZID A 300      -0.699 -28.609   7.880  1.00 26.54     0.180 C 
HETATM   37  O4D ZID A 300      -1.405 -28.952   9.114  1.00 26.70    -0.353 OA
HETATM   38  C1D ZID A 300      -1.044 -28.001  10.069  1.00 24.37     0.259 C 
HETATM   39  C2D ZID A 300       0.429 -27.704   9.726  1.00 23.83     0.198 C 
HETATM   40  C3D ZID A 300       0.394 -27.570   8.227  1.00 24.97     0.182 C 
BRANCH  38  41
HETATM   41  N1N ZID A 300      -1.077 -28.394  11.458  1.00 25.28    -0.336 N 
HETATM   42  C2N ZID A 300      -0.356 -29.461  11.892  1.00 22.44     0.111 A 
HETATM   43  C3N ZID A 300      -0.353 -29.748  13.203  1.00 25.89     0.056 A 
HETATM   44  C4N ZID A 300      -1.107 -28.882  14.019  1.00 26.60    -0.007 A 
HETATM   45  C5N ZID A 300      -1.741 -27.754  13.568  1.00 27.45     0.028 A 
HETATM   46  C6N ZID A 300      -1.719 -27.554  12.241  1.00 24.23     0.094 A 
BRANCH  43  47
HETATM   47  C7N ZID A 300       0.332 -31.020  13.724  1.00 28.02     0.251 C 
HETATM   48  O7N ZID A 300       1.571 -31.094  13.828  1.00 26.84    -0.268 OA
HETATM   49  N7N ZID A 300      -0.362 -32.142  13.792  1.00 23.44    -0.366 N 
ATOM     50 2H7N ZID A 300      -1.376 -32.082  13.708  1.00  0.00     0.159 HD
ATOM     51 1H7N ZID A 300       0.093 -32.987  14.138  1.00  0.00     0.159 HD
ENDBRANCH  43  47
BRANCH  44  52
HETATM   52  C7Z ZID A 300      -0.720 -28.991  15.321  1.00 27.75     0.185 C 
BRANCH  52  53
HETATM   53  O7Z ZID A 300       0.520 -28.181  14.925  1.00 23.71    -0.386 OA
ATOM     54  H7Z ZID A 300       0.441 -28.586  14.069  1.00  0.00     0.210 HD
ENDBRANCH  52  53
BRANCH  52  55
HETATM   55  C4Z ZID A 300      -0.926 -28.108  16.482  1.00 23.40    -0.023 A 
HETATM   56  C3Z ZID A 300      -1.539 -28.550  17.630  1.00 23.67     0.027 A 
HETATM   57  C2Z ZID A 300      -1.536 -27.696  18.722  1.00 22.98     0.088 A 
HETATM   58  N1Z ZID A 300      -0.923 -26.485  18.691  1.00 25.57    -0.375 N 
HETATM   59  C6Z ZID A 300      -0.248 -26.054  17.602  1.00 26.04     0.088 A 
ATOM     60  H1Z ZID A 300      -0.974 -25.883  19.513  1.00  0.00     0.164 HD
HETATM   61  C5Z ZID A 300      -0.222 -26.868  16.492  1.00 24.83     0.027 A 
ENDBRANCH  52  55
ENDBRANCH  44  52
ENDBRANCH  38  41
BRANCH  39  62
HETATM   62  O2D ZID A 300       1.049 -26.524  10.326  1.00 23.60    -0.388 OA
ATOM     63  H2D ZID A 300       1.510 -26.763  11.122  1.00  0.00     0.210 HD
ENDBRANCH  39  62
BRANCH  40  64
HETATM   64  O3D ZID A 300      -0.081 -26.220   7.933  1.00 26.13    -0.390 OA
ATOM     65  H3D ZID A 300       0.181 -25.962   7.057  1.00  0.00     0.210 HD
ENDBRANCH  40  64
ENDBRANCH  35  36
ENDBRANCH  34  35
ENDBRANCH   1  34
TORSDOF 19
ENDMDL
MODEL 2
REMARK VINA RESULT:     -10.0      2.417     11.629
REMARK  19 active torsions:
REMARK  status: ('A' for Active; 'I' for Inactive)
REMARK    1  A    between atoms: PA_1  and  O5B_4 
REMARK    2  A    between atoms: PA_1  and  O3_30 
REMARK    3  A    between atoms: O5B_4  and  C5B_5 
REMARK    4  A    between atoms: C5B_5  and  C4B_6 
REMARK    5  A    between atoms: C3B_8  and  O3B_9 
REMARK    6  A    between atoms: C2B_11  and  O2B_12 
REMARK    7  A    between atoms: C1B_14  and  N9A_15 
REMARK    8  A    between atoms: C6A_20  and  N6A_21 
REMARK    9  A    between atoms: O3_30  and  PN_31 
REMARK   10  A    between atoms: PN_31  and  O5D_34 
REMARK   11  A    between atoms: O5D_34  and  C5D_35 
REMARK   12  A    between atoms: C5D_35  and  C4D_36 
REMARK   13  A    between atoms: C3D_38  and  O3D_39 
REMARK   14  A    between atoms: C2D_41  and  O2D_42 
REMARK   15  A    between atoms: C1D_44  and  N1N_45 
REMARK   16  A    between atoms: C3N_47  and  C7N_48 
REMARK       I    between atoms: C7N_48  and  N7N_50 
REMARK   17  A    between atoms: C4N_53  and  C7Z_56 
REMARK   18  A    between atoms: C7Z_56  and  O7Z_57 
REMARK   19  A    between atoms: C7Z_56  and  C4Z_63 
ROOT
HETATM    1  PN  ZID A 300       2.711 -33.974  11.188  1.00 26.51     0.417 P 
HETATM    2  O1N ZID A 300       4.095 -34.029  10.626  1.00 30.48    -0.624 OA
HETATM    3  O2N ZID A 300       1.658 -34.980  10.818  1.00 28.40    -0.624 OA
ENDROOT
BRANCH   1   4
HETATM    4  O3  ZID A 300       2.234 -32.430  10.952  1.00 30.29    -0.180 OA
BRANCH   4   5
HETATM    5  PA  ZID A 300       3.154 -31.068  11.053  1.00 28.62     0.417 P 
HETATM    6  O1A ZID A 300       3.939 -31.271  12.324  1.00 28.37    -0.624 OA
HETATM    7  O2A ZID A 300       3.798 -30.745   9.740  1.00 30.19    -0.624 OA
BRANCH   5   8
HETATM    8  O5B ZID A 300       2.046 -29.937  11.228  1.00 29.52    -0.287 OA
BRANCH   8   9
HETATM    9  C5B ZID A 300       0.659 -30.215  11.247  1.00 27.76     0.216 C 
BRANCH   9  10
HETATM   10  C4B ZID A 300       0.379 -30.369  12.725  1.00 27.48     0.180 C 
HETATM   11  O4B ZID A 300       0.922 -29.248  13.411  1.00 27.81    -0.353 OA
HETATM   12  C1B ZID A 300       0.077 -29.029  14.507  1.00 28.20     0.262 C 
HETATM   13  C2B ZID A 300      -1.331 -29.176  13.916  1.00 28.50     0.198 C 
HETATM   14  C3B ZID A 300      -1.136 -30.385  13.033  1.00 25.42     0.182 C 
BRANCH  12  15
HETATM   15  N9A ZID A 300       0.207 -27.733  15.169  1.00 26.08    -0.297 N 
HETATM   16  C8A ZID A 300       0.726 -26.617  14.632  1.00 24.53     0.188 A 
HETATM   17  N7A ZID A 300       0.571 -25.640  15.514  1.00 23.35    -0.346 N 
HETATM   18  C5A ZID A 300      -0.105 -26.133  16.587  1.00 25.38     0.122 A 
ATOM     19  H7A ZID A 300       0.903 -24.681  15.406  1.00  0.00     0.167 HD
HETATM   20  C6A ZID A 300      -0.546 -25.579  17.779  1.00 23.71     0.131 A 
HETATM   21  C4A ZID A 300      -0.346 -27.452  16.341  1.00 23.66     0.142 A 
HETATM   22  N1A ZID A 300      -1.159 -26.373  18.662  1.00 27.06    -0.337 N 
HETATM   23  C2A ZID A 300      -1.404 -27.674  18.378  1.00 25.81     0.183 A 
ATOM     24  H1A ZID A 300      -1.448 -25.993  19.563  1.00  0.00     0.168 HD
HETATM   25  N3A ZID A 300      -0.989 -28.212  17.238  1.00 26.02    -0.336 N 
ATOM     26  H3A ZID A 300      -1.158 -29.199  17.046  1.00  0.00     0.168 HD
BRANCH  20  27
HETATM   27  N6A ZID A 300      -0.347 -24.273  18.072  1.00 26.06    -0.383 N 
ATOM     28 2H6A ZID A 300       0.028 -23.645  17.361  1.00  0.00     0.157 HD
ATOM     29 1H6A ZID A 300      -0.582 -23.888  18.987  1.00  0.00     0.157 HD
ENDBRANCH  20  27
ENDBRANCH  12  15
BRANCH  13  30
HETATM   30  O2B ZID A 300      -2.317 -29.387  14.939  1.00 34.28    -0.388 OA
ATOM     31  H2B ZID A 300      -2.069 -30.070  15.552  1.00  0.00     0.210 HD
ENDBRANCH  13  30
BRANCH  14  32
HETATM   32  O3B ZID A 300      -1.409 -31.544  13.788  1.00 26.39    -0.390 OA
ATOM     33  H3B ZID A 300      -2.011 -31.303  14.482  1.00  0.00     0.210 HD
ENDBRANCH  14  32
ENDBRANCH   9  10
ENDBRANCH   8   9
ENDBRANCH   5   8
ENDBRANCH   4   5
ENDBRANCH   1   4
BRANCH   1  34
HETATM   34  O5D ZID A 300       2.743 -33.949  12.774  1.00 27.38    -0.287 OA
BRANCH  34  35
HETATM   35  C5D ZID A 300       2.509 -35.103  13.576  1.00 26.32     0.216 C 
BRANCH  35  36
HETATM   36  C4D ZID A 300       3.684 -35.284  14.540  1.00 26.54     0.180 C 
HETATM   37  O4D ZID A 300       4.512 -36.328  13.938  1.00 26.70    -0.353 OA
HETATM   38  C1D ZID A 300       5.834 -35.889  14.002  1.00 24.37     0.259 C 
HETATM   39  C2D ZID A 300       5.707 -34.368  13.788  1.00 23.83     0.198 C 
HETATM   40  C3D ZID A 300       4.550 -34.009  14.681  1.00 24.97     0.182 C 
BRANCH  38  41
HETATM   41  N1N ZID A 300       6.755 -36.375  13.001  1.00 25.28    -0.336 N 
HETATM   42  C2N ZID A 300       6.421 -36.350  11.685  1.00 22.44     0.111 A 
HETATM   43  C3N ZID A 300       7.333 -36.739  10.779  1.00 25.89     0.056 A 
HETATM   44  C4N ZID A 300       8.581 -37.131  11.302  1.00 26.60    -0.007 A 
HETATM   45  C5N ZID A 300       8.924 -37.050  12.626  1.00 27.45     0.028 A 
HETATM   46  C6N ZID A 300       7.948 -36.678  13.467  1.00 24.23     0.094 A 
BRANCH  43  47
HETATM   47  C7N ZID A 300       6.961 -36.859   9.295  1.00 28.02     0.251 C 
HETATM   48  O7N ZID A 300       7.826 -36.796   8.401  1.00 26.84    -0.268 OA
HETATM   49  N7N ZID A 300       5.695 -36.742   8.938  1.00 23.44    -0.366 N 
ATOM     50 2H7N ZID A 300       4.986 -36.795   9.669  1.00  0.00     0.159 HD
ATOM     51 1H7N ZID A 300       5.447 -36.822   7.951  1.00  0.00     0.159 HD
ENDBRANCH  43  47
BRANCH  44  52
HETATM   52  C7Z ZID A 300       9.538 -37.105  10.331  1.00 27.75     0.185 C 
BRANCH  52  53
HETATM   53  O7Z ZID A 300       9.644 -35.600  10.606  1.00 23.71    -0.386 OA
ATOM     54  H7Z ZID A 300       8.721 -35.553  10.386  1.00  0.00     0.210 HD
ENDBRANCH  52  53
BRANCH  52  55
HETATM   55  C4Z ZID A 300      11.005 -37.221  10.397  1.00 23.40    -0.023 A 
HETATM   56  C3Z ZID A 300      11.633 -38.442  10.465  1.00 23.67     0.027 A 
HETATM   57  C2Z ZID A 300      13.015 -38.452  10.355  1.00 22.98     0.088 A 
HETATM   58  N1Z ZID A 300      13.732 -37.318  10.148  1.00 25.57    -0.375 N 
HETATM   59  C6Z ZID A 300      13.137 -36.114  10.001  1.00 26.04     0.088 A 
ATOM     60  H1Z ZID A 300      14.750 -37.378  10.102  1.00  0.00     0.164 HD
HETATM   61  C5Z ZID A 300      11.765 -36.052  10.102  1.00 24.83     0.027 A 
ENDBRANCH  52  55
ENDBRANCH  44  52
ENDBRANCH  38  41
BRANCH  39  62
HETATM   62  O2D ZID A 300       6.866 -33.533  14.099  1.00 23.60    -0.388 OA
ATOM     63  H2D ZID A 300       7.547 -34.053  14.507  1.00  0.00     0.210 HD
ENDBRANCH  39  62
BRANCH  40  64
HETATM   64  O3D ZID A 300       5.078 -33.904  16.039  1.00 26.13    -0.390 OA
ATOM     65  H3D ZID A 300       6.019 -33.772  16.016  1.00  0.00     0.210 HD
ENDBRANCH  40  64
ENDBRANCH  35  36
ENDBRANCH  34  35
ENDBRANCH   1  34
TORSDOF 19
ENDMDL
MODEL 3
REMARK VINA RESULT:      -9.9      1.636      2.030
REMARK  19 active torsions:
REMARK  status: ('A' for Active; 'I' for Inactive)
REMARK    1  A    between atoms: PA_1  and  O5B_4 
REMARK    2  A    between atoms: PA_1  and  O3_30 
REMARK    3  A    between atoms: O5B_4  and  C5B_5 
REMARK    4  A    between atoms: C5B_5  and  C4B_6 
REMARK    5  A    between atoms: C3B_8  and  O3B_9 
REMARK    6  A    between atoms: C2B_11  and  O2B_12 
REMARK    7  A    between atoms: C1B_14  and  N9A_15 
REMARK    8  A    between atoms: C6A_20  and  N6A_21 
REMARK    9  A    between atoms: O3_30  and  PN_31 
REMARK   10  A    between atoms: PN_31  and  O5D_34 
REMARK   11  A    between atoms: O5D_34  and  C5D_35 
REMARK   12  A    between atoms: C5D_35  and  C4D_36 
REMARK   13  A    between atoms: C3D_38  and  O3D_39 
REMARK   14  A    between atoms: C2D_41  and  O2D_42 
REMARK   15  A    between atoms: C1D_44  and  N1N_45 
REMARK   16  A    between atoms: C3N_47  and  C7N_48 
REMARK       I    between atoms: C7N_48  and  N7N_50 
REMARK   17  A    between atoms: C4N_53  and  C7Z_56 
REMARK   18  A    between atoms: C7Z_56  and  O7Z_57 
REMARK   19  A    between atoms: C7Z_56  and  C4Z_63 
ROOT
HETATM    1  PN  ZID A 300       1.383 -32.294   9.742  1.00 26.51     0.417 P 
HETATM    2  O1N ZID A 300       0.780 -33.621   9.413  1.00 30.48    -0.624 OA
HETATM    3  O2N ZID A 300       2.670 -31.826   9.124  1.00 28.40    -0.624 OA
ENDROOT
BRANCH   1   4
HETATM    4  O3  ZID A 300       1.401 -32.245  11.375  1.00 30.29    -0.180 OA
BRANCH   4   5
HETATM    5  PA  ZID A 300       2.362 -33.110  12.395  1.00 28.62     0.417 P 
HETATM    6  O1A ZID A 300       3.011 -32.048  13.247  1.00 28.37    -0.624 OA
HETATM    7  O2A ZID A 300       1.631 -34.283  12.971  1.00 30.19    -0.624 OA
BRANCH   5   8
HETATM    8  O5B ZID A 300       3.405 -33.764  11.385  1.00 29.52    -0.287 OA
BRANCH   8   9
HETATM    9  C5B ZID A 300       4.803 -33.742  11.603  1.00 27.76     0.216 C 
BRANCH   9  10
HETATM   10  C4B ZID A 300       5.032 -35.024  12.370  1.00 27.48     0.180 C 
HETATM   11  O4B ZID A 300       6.001 -35.803  11.678  1.00 27.81    -0.353 OA
HETATM   12  C1B ZID A 300       6.698 -36.507  12.669  1.00 28.20     0.262 C 
HETATM   13  C2B ZID A 300       6.943 -35.455  13.759  1.00 28.50     0.198 C 
HETATM   14  C3B ZID A 300       5.601 -34.765  13.784  1.00 25.42     0.182 C 
BRANCH  12  15
HETATM   15  N9A ZID A 300       7.967 -37.105  12.259  1.00 26.08    -0.297 N 
HETATM   16  C8A ZID A 300       8.419 -38.320  12.611  1.00 24.53     0.188 A 
HETATM   17  N7A ZID A 300       9.553 -38.528  11.955  1.00 23.35    -0.346 N 
HETATM   18  C5A ZID A 300       9.780 -37.462  11.140  1.00 25.38     0.122 A 
ATOM     19  H7A ZID A 300      10.153 -39.348  12.047  1.00  0.00     0.167 HD
HETATM   20  C6A ZID A 300      10.782 -37.142  10.237  1.00 23.71     0.131 A 
HETATM   21  C4A ZID A 300       8.755 -36.584  11.330  1.00 23.66     0.142 A 
HETATM   22  N1A ZID A 300      10.725 -35.961   9.614  1.00 27.06    -0.337 N 
HETATM   23  C2A ZID A 300       9.682 -35.121   9.807  1.00 25.81     0.183 A 
ATOM     24  H1A ZID A 300      11.479 -35.690   8.983  1.00  0.00     0.168 HD
HETATM   25  N3A ZID A 300       8.715 -35.420  10.666  1.00 26.02    -0.336 N 
ATOM     26  H3A ZID A 300       7.946 -34.768  10.821  1.00  0.00     0.168 HD
BRANCH  20  27
HETATM   27  N6A ZID A 300      11.817 -37.980   9.999  1.00 26.06    -0.383 N 
ATOM     28 2H6A ZID A 300      12.402 -38.296  10.773  1.00  0.00     0.157 HD
ATOM     29 1H6A ZID A 300      12.022 -38.325   9.061  1.00  0.00     0.157 HD
ENDBRANCH  20  27
ENDBRANCH  12  15
BRANCH  13  30
HETATM   30  O2B ZID A 300       7.280 -36.063  15.016  1.00 34.28    -0.388 OA
ATOM     31  H2B ZID A 300       7.427 -35.425  15.705  1.00  0.00     0.210 HD
ENDBRANCH  13  30
BRANCH  14  32
HETATM   32  O3B ZID A 300       4.769 -35.428  14.710  1.00 26.39    -0.390 OA
ATOM     33  H3B ZID A 300       4.798 -34.941  15.526  1.00  0.00     0.210 HD
ENDBRANCH  14  32
ENDBRANCH   9  10
ENDBRANCH   8   9
ENDBRANCH   5   8
ENDBRANCH   4   5
ENDBRANCH   1   4
BRANCH   1  34
HETATM   34  O5D ZID A 300       0.341 -31.122   9.504  1.00 27.38    -0.287 OA
BRANCH  34  35
HETATM   35  C5D ZID A 300      -0.064 -30.692   8.208  1.00 26.32     0.216 C 
BRANCH  35  36
HETATM   36  C4D ZID A 300      -0.068 -29.162   8.170  1.00 26.54     0.180 C 
HETATM   37  O4D ZID A 300      -0.741 -28.754   9.402  1.00 26.70    -0.353 OA
HETATM   38  C1D ZID A 300       0.025 -27.735   9.969  1.00 24.37     0.259 C 
HETATM   39  C2D ZID A 300       1.468 -28.152   9.626  1.00 23.83     0.198 C 
HETATM   40  C3D ZID A 300       1.356 -28.556   8.180  1.00 24.97     0.182 C 
BRANCH  38  41
HETATM   41  N1N ZID A 300      -0.031 -27.566  11.401  1.00 25.28    -0.336 N 
HETATM   42  C2N ZID A 300      -0.063 -28.647  12.224  1.00 22.44     0.111 A 
HETATM   43  C3N ZID A 300      -0.037 -28.449  13.552  1.00 25.89     0.056 A 
HETATM   44  C4N ZID A 300       0.037 -27.105  13.966  1.00 26.60    -0.007 A 
HETATM   45  C5N ZID A 300       0.170 -26.040  13.114  1.00 27.45     0.028 A 
HETATM   46  C6N ZID A 300       0.109 -26.321  11.804  1.00 24.23     0.094 A 
BRANCH  43  47
HETATM   47  C7N ZID A 300      -0.210 -29.627  14.522  1.00 28.02     0.251 C 
HETATM   48  O7N ZID A 300       0.697 -30.462  14.696  1.00 26.84    -0.268 OA
HETATM   49  N7N ZID A 300      -1.419 -29.927  14.959  1.00 23.44    -0.366 N 
ATOM     50 2H7N ZID A 300      -2.162 -29.244  14.817  1.00  0.00     0.159 HD
ATOM     51 1H7N ZID A 300      -1.534 -30.710  15.603  1.00  0.00     0.159 HD
ENDBRANCH  43  47
BRANCH  44  52
HETATM   52  C7Z ZID A 300       0.467 -27.024  15.257  1.00 27.75     0.185 C 
BRANCH  52  53
HETATM   53  O7Z ZID A 300       1.011 -25.637  14.891  1.00 23.71    -0.386 OA
ATOM     54  H7Z ZID A 300       0.685 -25.350  15.735  1.00  0.00     0.210 HD
ENDBRANCH  52  53
BRANCH  52  55
HETATM   55  C4Z ZID A 300      -0.158 -26.460  16.465  1.00 23.40    -0.023 A 
HETATM   56  C3Z ZID A 300      -0.758 -27.257  17.410  1.00 23.67     0.027 A 
HETATM   57  C2Z ZID A 300      -1.168 -26.649  18.587  1.00 22.98     0.088 A 
HETATM   58  N1Z ZID A 300      -0.959 -25.330  18.830  1.00 25.57    -0.375 N 
HETATM   59  C6Z ZID A 300      -0.304 -24.537  17.953  1.00 26.04     0.088 A 
ATOM     60  H1Z ZID A 300      -1.305 -24.926  19.701  1.00  0.00     0.164 HD
HETATM   61  C5Z ZID A 300       0.123 -25.095  16.769  1.00 24.83     0.027 A 
ENDBRANCH  52  55
ENDBRANCH  44  52
ENDBRANCH  38  41
BRANCH  39  62
HETATM   62  O2D ZID A 300       2.528 -27.160   9.794  1.00 23.60    -0.388 OA
ATOM     63  H2D ZID A 300       2.163 -26.283   9.785  1.00  0.00     0.210 HD
ENDBRANCH  39  62
BRANCH  40  64
HETATM   64  O3D ZID A 300       1.388 -27.326   7.392  1.00 26.13    -0.390 OA
ATOM     65  H3D ZID A 300       1.677 -26.599   7.930  1.00  0.00     0.210 HD
ENDBRANCH  40  64
ENDBRANCH  35  36
ENDBRANCH  34  35
ENDBRANCH   1  34
TORSDOF 19
ENDMDL
MODEL 4
REMARK VINA RESULT:      -9.8      1.744      2.357
REMARK  19 active torsions:
REMARK  status: ('A' for Active; 'I' for Inactive)
REMARK    1  A    between atoms: PA_1  and  O5B_4 
REMARK    2  A    between atoms: PA_1  and  O3_30 
REMARK    3  A    between atoms: O5B_4  and  C5B_5 
REMARK    4  A    between atoms: C5B_5  and  C4B_6 
REMARK    5  A    between atoms: C3B_8  and  O3B_9 
REMARK    6  A    between atoms: C2B_11  and  O2B_12 
REMARK    7  A    between atoms: C1B_14  and  N9A_15 
REMARK    8  A    between atoms: C6A_20  and  N6A_21 
REMARK    9  A    between atoms: O3_30  and  PN_31 
REMARK   10  A    between atoms: PN_31  and  O5D_34 
REMARK   11  A    between atoms: O5D_34  and  C5D_35 
REMARK   12  A    between atoms: C5D_35  and  C4D_36 
REMARK   13  A    between atoms: C3D_38  and  O3D_39 
REMARK   14  A    between atoms: C2D_41  and  O2D_42 
REMARK   15  A    between atoms: C1D_44  and  N1N_45 
REMARK   16  A    between atoms: C3N_47  and  C7N_48 
REMARK       I    between atoms: C7N_48  and  N7N_50 
REMARK   17  A    between atoms: C4N_53  and  C7Z_56 
REMARK   18  A    between atoms: C7Z_56  and  O7Z_57 
REMARK   19  A    between atoms: C7Z_56  and  C4Z_63 
ROOT
HETATM    1  PN  ZID A 300       2.102 -32.633  11.536  1.00 26.51     0.417 P 
HETATM    2  O1N ZID A 300       3.270 -33.356  10.949  1.00 30.48    -0.624 OA
HETATM    3  O2N ZID A 300       2.264 -31.372  12.337  1.00 28.40    -0.624 OA
ENDROOT
BRANCH   1   4
HETATM    4  O3  ZID A 300       1.257 -33.789  12.323  1.00 30.29    -0.180 OA
BRANCH   4   5
HETATM    5  PA  ZID A 300       1.394 -35.421  12.155  1.00 28.62     0.417 P 
HETATM    6  O1A ZID A 300       0.201 -35.950  12.912  1.00 28.37    -0.624 OA
HETATM    7  O2A ZID A 300       1.694 -35.802  10.739  1.00 30.19    -0.624 OA
BRANCH   5   8
HETATM    8  O5B ZID A 300       2.753 -35.717  12.931  1.00 29.52    -0.287 OA
BRANCH   8   9
HETATM    9  C5B ZID A 300       2.790 -36.214  14.255  1.00 27.76     0.216 C 
BRANCH   9  10
HETATM   10  C4B ZID A 300       4.162 -35.786  14.724  1.00 27.48     0.180 C 
HETATM   11  O4B ZID A 300       5.127 -36.230  13.779  1.00 27.81    -0.353 OA
HETATM   12  C1B ZID A 300       6.148 -35.271  13.801  1.00 28.20     0.262 C 
HETATM   13  C2B ZID A 300       5.393 -33.935  13.815  1.00 28.50     0.198 C 
HETATM   14  C3B ZID A 300       4.297 -34.248  14.805  1.00 25.42     0.182 C 
BRANCH  12  15
HETATM   15  N9A ZID A 300       7.083 -35.303  12.678  1.00 26.08    -0.297 N 
HETATM   16  C8A ZID A 300       7.412 -34.265  11.892  1.00 24.53     0.188 A 
HETATM   17  N7A ZID A 300       8.359 -34.678  11.062  1.00 23.35    -0.346 N 
HETATM   18  C5A ZID A 300       8.669 -35.967  11.371  1.00 25.38     0.122 A 
ATOM     19  H7A ZID A 300       8.784 -34.124  10.318  1.00  0.00     0.167 HD
HETATM   20  C6A ZID A 300       9.572 -36.885  10.857  1.00 23.71     0.131 A 
HETATM   21  C4A ZID A 300       7.868 -36.337  12.409  1.00 23.66     0.142 A 
HETATM   22  N1A ZID A 300       9.594 -38.116  11.377  1.00 27.06    -0.337 N 
HETATM   23  C2A ZID A 300       8.801 -38.446  12.423  1.00 25.81     0.183 A 
ATOM     24  H1A ZID A 300      10.218 -38.818  10.979  1.00  0.00     0.168 HD
HETATM   25  N3A ZID A 300       7.937 -37.572  12.925  1.00 26.02    -0.336 N 
ATOM     26  H3A ZID A 300       7.328 -37.840  13.698  1.00  0.00     0.168 HD
BRANCH  20  27
HETATM   27  N6A ZID A 300      10.401 -36.571   9.835  1.00 26.06    -0.383 N 
ATOM     28 2H6A ZID A 300      10.059 -36.608   8.875  1.00  0.00     0.157 HD
ATOM     29 1H6A ZID A 300      11.364 -36.275   9.998  1.00  0.00     0.157 HD
ENDBRANCH  20  27
ENDBRANCH  12  15
BRANCH  13  30
HETATM   30  O2B ZID A 300       6.237 -32.854  14.242  1.00 34.28    -0.388 OA
ATOM     31  H2B ZID A 300       6.622 -32.379  13.515  1.00  0.00     0.210 HD
ENDBRANCH  13  30
BRANCH  14  32
HETATM   32  O3B ZID A 300       4.752 -33.924  16.100  1.00 26.39    -0.390 OA
ATOM     33  H3B ZID A 300       4.322 -34.508  16.713  1.00  0.00     0.210 HD
ENDBRANCH  14  32
ENDBRANCH   9  10
ENDBRANCH   8   9
ENDBRANCH   5   8
ENDBRANCH   4   5
ENDBRANCH   1   4
BRANCH   1  34
HETATM   34  O5D ZID A 300       1.022 -32.299  10.422  1.00 27.38    -0.287 OA
BRANCH  34  35
HETATM   35  C5D ZID A 300       1.365 -31.840   9.119  1.00 26.32     0.216 C 
BRANCH  35  36
HETATM   36  C4D ZID A 300       0.692 -30.487   8.875  1.00 26.54     0.180 C 
HETATM   37  O4D ZID A 300      -0.166 -30.275  10.039  1.00 26.70    -0.353 OA
HETATM   38  C1D ZID A 300       0.038 -28.962  10.464  1.00 24.37     0.259 C 
HETATM   39  C2D ZID A 300       1.535 -28.733  10.181  1.00 23.83     0.198 C 
HETATM   40  C3D ZID A 300       1.700 -29.316   8.803  1.00 24.97     0.182 C 
BRANCH  38  41
HETATM   41  N1N ZID A 300      -0.173 -28.664  11.861  1.00 25.28    -0.336 N 
HETATM   42  C2N ZID A 300      -0.710 -29.594  12.692  1.00 22.44     0.111 A 
HETATM   43  C3N ZID A 300      -0.819 -29.306  13.999  1.00 25.89     0.056 A 
HETATM   44  C4N ZID A 300      -0.341 -28.039  14.386  1.00 26.60    -0.007 A 
HETATM   45  C5N ZID A 300       0.288 -27.161  13.543  1.00 27.45     0.028 A 
HETATM   46  C6N ZID A 300       0.333 -27.513  12.249  1.00 24.23     0.094 A 
BRANCH  43  47
HETATM   47  C7N ZID A 300      -1.543 -30.266  14.954  1.00 28.02     0.251 C 
HETATM   48  O7N ZID A 300      -0.918 -31.121  15.611  1.00 26.84    -0.268 OA
HETATM   49  N7N ZID A 300      -2.855 -30.388  14.872  1.00 23.44    -0.366 N 
ATOM     50 2H7N ZID A 300      -3.367 -29.689  14.335  1.00  0.00     0.159 HD
ATOM     51 1H7N ZID A 300      -3.335 -31.027  15.507  1.00  0.00     0.159 HD
ENDBRANCH  43  47
BRANCH  44  52
HETATM   52  C7Z ZID A 300      -0.112 -28.002  15.729  1.00 27.75     0.185 C 
BRANCH  52  53
HETATM   53  O7Z ZID A 300       1.316 -27.568  15.380  1.00 23.71    -0.386 OA
ATOM     54  H7Z ZID A 300       1.217 -28.079  14.586  1.00  0.00     0.210 HD
ENDBRANCH  52  53
BRANCH  52  55
HETATM   55  C4Z ZID A 300      -0.206 -26.906  16.709  1.00 23.40    -0.023 A 
HETATM   56  C3Z ZID A 300       0.190 -25.626  16.405  1.00 23.67     0.027 A 
HETATM   57  C2Z ZID A 300      -0.093 -24.635  17.334  1.00 22.98     0.088 A 
HETATM   58  N1Z ZID A 300      -0.768 -24.894  18.482  1.00 25.57    -0.375 N 
HETATM   59  C6Z ZID A 300      -1.237 -26.127  18.774  1.00 26.04     0.088 A 
ATOM     60  H1Z ZID A 300      -0.925 -24.134  19.145  1.00  0.00     0.164 HD
HETATM   61  C5Z ZID A 300      -0.981 -27.145  17.882  1.00 24.83     0.027 A 
ENDBRANCH  52  55
ENDBRANCH  44  52
ENDBRANCH  38  41
BRANCH  39  62
HETATM   62  O2D ZID A 300       2.038 -27.361  10.214  1.00 23.60    -0.388 OA
ATOM     63  H2D ZID A 300       1.384 -26.779  10.582  1.00  0.00     0.210 HD
ENDBRANCH  39  62
BRANCH  40  64
HETATM   64  O3D ZID A 300       1.235 -28.305   7.856  1.00 26.13    -0.390 OA
ATOM     65  H3D ZID A 300       0.291 -28.210   7.915  1.00  0.00     0.210 HD
ENDBRANCH  40  64
ENDBRANCH  35  36
ENDBRANCH  34  35
ENDBRANCH   1  34
TORSDOF 19
ENDMDL
MODEL 5
REMARK VINA RESULT:      -9.6      4.241      7.359
REMARK  19 active torsions:
REMARK  status: ('A' for Active; 'I' for Inactive)
REMARK    1  A    between atoms: PA_1  and  O5B_4 
REMARK    2  A    between atoms: PA_1  and  O3_30 
REMARK    3  A    between atoms: O5B_4  and  C5B_5 
REMARK    4  A    between atoms: C5B_5  and  C4B_6 
REMARK    5  A    between atoms: C3B_8  and  O3B_9 
REMARK    6  A    between atoms: C2B_11  and  O2B_12 
REMARK    7  A    between atoms: C1B_14  and  N9A_15 
REMARK    8  A    between atoms: C6A_20  and  N6A_21 
REMARK    9  A    between atoms: O3_30  and  PN_31 
REMARK   10  A    between atoms: PN_31  and  O5D_34 
REMARK   11  A    between atoms: O5D_34  and  C5D_35 
REMARK   12  A    between atoms: C5D_35  and  C4D_36 
REMARK   13  A    between atoms: C3D_38  and  O3D_39 
REMARK   14  A    between atoms: C2D_41  and  O2D_42 
REMARK   15  A    between atoms: C1D_44  and  N1N_45 
REMARK   16  A    between atoms: C3N_47  and  C7N_48 
REMARK       I    between atoms: C7N_48  and  N7N_50 
REMARK   17  A    between atoms: C4N_53  and  C7Z_56 
REMARK   18  A    between atoms: C7Z_56  and  O7Z_57 
REMARK   19  A    between atoms: C7Z_56  and  C4Z_63 
ROOT
HETATM    1  PN  ZID A 300      -0.517 -29.846   6.995  1.00 26.51     0.417 P 
HETATM    2  O1N ZID A 300      -0.192 -30.116   5.561  1.00 30.48    -0.624 OA
HETATM    3  O2N ZID A 300      -1.919 -29.940   7.527  1.00 28.40    -0.624 OA
ENDROOT
BRANCH   1   4
HETATM    4  O3  ZID A 300       0.196 -28.411   7.314  1.00 30.29    -0.180 OA
BRANCH   4   5
HETATM    5  PA  ZID A 300      -0.527 -26.937   7.436  1.00 28.62     0.417 P 
HETATM    6  O1A ZID A 300      -1.464 -26.909   6.254  1.00 28.37    -0.624 OA
HETATM    7  O2A ZID A 300      -0.974 -26.662   8.837  1.00 30.19    -0.624 OA
BRANCH   5   8
HETATM    8  O5B ZID A 300       0.705 -25.950   7.223  1.00 29.52    -0.287 OA
BRANCH   8   9
HETATM    9  C5B ZID A 300       0.889 -25.193   6.042  1.00 27.76     0.216 C 
BRANCH   9  10
HETATM   10  C4B ZID A 300       2.381 -25.294   5.821  1.00 27.48     0.180 C 
HETATM   11  O4B ZID A 300       2.988 -25.777   7.013  1.00 27.81    -0.353 OA
HETATM   12  C1B ZID A 300       4.096 -26.526   6.596  1.00 28.20     0.262 C 
HETATM   13  C2B ZID A 300       3.559 -27.347   5.417  1.00 28.50     0.198 C 
HETATM   14  C3B ZID A 300       2.738 -26.301   4.703  1.00 25.42     0.182 C 
BRANCH  12  15
HETATM   15  N9A ZID A 300       4.683 -27.416   7.597  1.00 26.08    -0.297 N 
HETATM   16  C8A ZID A 300       5.973 -27.781   7.672  1.00 24.53     0.188 A 
HETATM   17  N7A ZID A 300       6.117 -28.509   8.771  1.00 23.35    -0.346 N 
HETATM   18  C5A ZID A 300       4.922 -28.549   9.421  1.00 25.38     0.122 A 
ATOM     19  H7A ZID A 300       6.978 -28.963   9.077  1.00  0.00     0.167 HD
HETATM   20  C6A ZID A 300       4.491 -29.139  10.598  1.00 23.71     0.131 A 
HETATM   21  C4A ZID A 300       4.034 -27.833   8.675  1.00 23.66     0.142 A 
HETATM   22  N1A ZID A 300       3.204 -29.016  10.938  1.00 27.06    -0.337 N 
HETATM   23  C2A ZID A 300       2.351 -28.280  10.188  1.00 25.81     0.183 A 
ATOM     24  H1A ZID A 300       2.859 -29.484  11.776  1.00  0.00     0.168 HD
HETATM   25  N3A ZID A 300       2.757 -27.707   9.061  1.00 26.02    -0.336 N 
ATOM     26  H3A ZID A 300       2.099 -27.175   8.491  1.00  0.00     0.168 HD
BRANCH  20  27
HETATM   27  N6A ZID A 300       5.330 -29.850  11.386  1.00 26.06    -0.383 N 
ATOM     28 2H6A ZID A 300       5.030 -30.748  11.766  1.00  0.00     0.157 HD
ATOM     29 1H6A ZID A 300       6.273 -29.523  11.597  1.00  0.00     0.157 HD
ENDBRANCH  20  27
ENDBRANCH  12  15
BRANCH  13  30
HETATM   30  O2B ZID A 300       4.623 -27.869   4.605  1.00 34.28    -0.388 OA
ATOM     31  H2B ZID A 300       4.934 -28.715   4.904  1.00  0.00     0.210 HD
ENDBRANCH  13  30
BRANCH  14  32
HETATM   32  O3B ZID A 300       3.563 -25.636   3.773  1.00 26.39    -0.390 OA
ATOM     33  H3B ZID A 300       4.206 -26.260   3.457  1.00  0.00     0.210 HD
ENDBRANCH  14  32
ENDBRANCH   9  10
ENDBRANCH   8   9
ENDBRANCH   5   8
ENDBRANCH   4   5
ENDBRANCH   1   4
BRANCH   1  34
HETATM   34  O5D ZID A 300       0.369 -30.744   7.957  1.00 27.38    -0.287 OA
BRANCH  34  35
HETATM   35  C5D ZID A 300       0.259 -32.163   8.017  1.00 26.32     0.216 C 
BRANCH  35  36
HETATM   36  C4D ZID A 300       1.148 -32.682   9.151  1.00 26.54     0.180 C 
HETATM   37  O4D ZID A 300       1.330 -31.539  10.044  1.00 26.70    -0.353 OA
HETATM   38  C1D ZID A 300       1.129 -32.000  11.345  1.00 24.37     0.259 C 
HETATM   39  C2D ZID A 300       0.021 -33.058  11.172  1.00 23.83     0.198 C 
HETATM   40  C3D ZID A 300       0.486 -33.822   9.961  1.00 24.97     0.182 C 
BRANCH  38  41
HETATM   41  N1N ZID A 300       0.655 -31.057  12.330  1.00 25.28    -0.336 N 
HETATM   42  C2N ZID A 300      -0.140 -30.017  11.964  1.00 22.44     0.111 A 
HETATM   43  C3N ZID A 300      -0.623 -29.206  12.919  1.00 25.89     0.056 A 
HETATM   44  C4N ZID A 300      -0.257 -29.534  14.239  1.00 26.60    -0.007 A 
HETATM   45  C5N ZID A 300       0.462 -30.648  14.587  1.00 27.45     0.028 A 
HETATM   46  C6N ZID A 300       0.930 -31.390  13.573  1.00 24.23     0.094 A 
BRANCH  43  47
HETATM   47  C7N ZID A 300      -1.409 -27.941  12.547  1.00 28.02     0.251 C 
HETATM   48  O7N ZID A 300      -2.649 -27.961  12.424  1.00 26.84    -0.268 OA
HETATM   49  N7N ZID A 300      -0.758 -26.895  12.073  1.00 23.44    -0.366 N 
ATOM     50 2H7N ZID A 300       0.257 -26.878  12.174  1.00  0.00     0.159 HD
ATOM     51 1H7N ZID A 300      -1.281 -26.054  11.826  1.00  0.00     0.159 HD
ENDBRANCH  43  47
BRANCH  44  52
HETATM   52  C7Z ZID A 300      -1.098 -28.940  15.132  1.00 27.75     0.185 C 
BRANCH  52  53
HETATM   53  O7Z ZID A 300      -0.893 -30.180  16.010  1.00 23.71    -0.386 OA
ATOM     54  H7Z ZID A 300      -1.374 -29.713  16.682  1.00  0.00     0.210 HD
ENDBRANCH  52  53
BRANCH  52  55
HETATM   55  C4Z ZID A 300      -0.839 -28.074  16.295  1.00 23.40    -0.023 A 
HETATM   56  C3Z ZID A 300      -0.225 -26.851  16.166  1.00 23.67     0.027 A 
HETATM   57  C2Z ZID A 300      -0.178 -26.041  17.291  1.00 22.98     0.088 A 
HETATM   58  N1Z ZID A 300      -0.744 -26.407  18.468  1.00 25.57    -0.375 N 
HETATM   59  C6Z ZID A 300      -1.421 -27.569  18.605  1.00 26.04     0.088 A 
ATOM     60  H1Z ZID A 300      -0.657 -25.786  19.273  1.00  0.00     0.164 HD
HETATM   61  C5Z ZID A 300      -1.496 -28.407  17.516  1.00 24.83     0.027 A 
ENDBRANCH  52  55
ENDBRANCH  44  52
ENDBRANCH  38  41
BRANCH  39  62
HETATM   62  O2D ZID A 300      -0.232 -33.974  12.283  1.00 23.60    -0.388 OA
ATOM     63  H2D ZID A 300      -1.124 -34.296  12.248  1.00  0.00     0.210 HD
ENDBRANCH  39  62
BRANCH  40  64
HETATM   64  O3D ZID A 300       1.499 -34.770  10.420  1.00 26.13    -0.390 OA
ATOM     65  H3D ZID A 300       2.351 -34.352  10.448  1.00  0.00     0.210 HD
ENDBRANCH  40  64
ENDBRANCH  35  36
ENDBRANCH  34  35
ENDBRANCH   1  34
TORSDOF 19
ENDMDL
MODEL 6
REMARK VINA RESULT:      -9.5      3.163      4.617
REMARK  19 active torsions:
REMARK  status: ('A' for Active; 'I' for Inactive)
REMARK    1  A    between atoms: PA_1  and  O5B_4 
REMARK    2  A    between atoms: PA_1  and  O3_30 
REMARK    3  A    between atoms: O5B_4  and  C5B_5 
REMARK    4  A    between atoms: C5B_5  and  C4B_6 
REMARK    5  A    between atoms: C3B_8  and  O3B_9 
REMARK    6  A    between atoms: C2B_11  and  O2B_12 
REMARK    7  A    between atoms: C1B_14  and  N9A_15 
REMARK    8  A    between atoms: C6A_20  and  N6A_21 
REMARK    9  A    between atoms: O3_30  and  PN_31 
REMARK   10  A    between atoms: PN_31  and  O5D_34 
REMARK   11  A    between atoms: O5D_34  and  C5D_35 
REMARK   12  A    between atoms: C5D_35  and  C4D_36 
REMARK   13  A    between atoms: C3D_38  and  O3D_39 
REMARK   14  A    between atoms: C2D_41  and  O2D_42 
REMARK   15  A    between atoms: C1D_44  and  N1N_45 
REMARK   16  A    between atoms: C3N_47  and  C7N_48 
REMARK       I    between atoms: C7N_48  and  N7N_50 
REMARK   17  A    between atoms: C4N_53  and  C7Z_56 
REMARK   18  A    between atoms: C7Z_56  and  O7Z_57 
REMARK   19  A    between atoms: C7Z_56  and  C4Z_63 
ROOT
HETATM    1  PN  ZID A 300       4.612 -27.200   7.930  1.00 26.51     0.417 P 
HETATM    2  O1N ZID A 300       4.642 -27.711   6.526  1.00 30.48    -0.624 OA
HETATM    3  O2N ZID A 300       5.366 -25.970   8.348  1.00 28.40    -0.624 OA
ENDROOT
BRANCH   1   4
HETATM    4  O3  ZID A 300       4.956 -28.506   8.848  1.00 30.29    -0.180 OA
BRANCH   4   5
HETATM    5  PA  ZID A 300       4.957 -28.606  10.492  1.00 28.62     0.417 P 
HETATM    6  O1A ZID A 300       5.890 -27.497  10.908  1.00 28.37    -0.624 OA
HETATM    7  O2A ZID A 300       3.568 -28.747  11.032  1.00 30.19    -0.624 OA
BRANCH   5   8
HETATM    8  O5B ZID A 300       5.611 -30.038  10.733  1.00 29.52    -0.287 OA
BRANCH   8   9
HETATM    9  C5B ZID A 300       6.665 -30.257  11.652  1.00 27.76     0.216 C 
BRANCH   9  10
HETATM   10  C4B ZID A 300       6.177 -31.461  12.424  1.00 27.48     0.180 C 
HETATM   11  O4B ZID A 300       4.847 -31.758  12.015  1.00 27.81    -0.353 OA
HETATM   12  C1B ZID A 300       4.719 -33.149  12.124  1.00 28.20     0.262 C 
HETATM   13  C2B ZID A 300       6.027 -33.683  11.525  1.00 28.50     0.198 C 
HETATM   14  C3B ZID A 300       7.022 -32.723  12.132  1.00 25.42     0.182 C 
BRANCH  12  15
HETATM   15  N9A ZID A 300       3.576 -33.744  11.435  1.00 26.08    -0.297 N 
HETATM   16  C8A ZID A 300       3.113 -34.993  11.604  1.00 24.53     0.188 A 
HETATM   17  N7A ZID A 300       2.011 -35.111  10.877  1.00 23.35    -0.346 N 
HETATM   18  C5A ZID A 300       1.747 -33.909  10.297  1.00 25.38     0.122 A 
ATOM     19  H7A ZID A 300       1.454 -35.960  10.770  1.00  0.00     0.167 HD
HETATM   20  C6A ZID A 300       0.744 -33.448   9.459  1.00 23.71     0.131 A 
HETATM   21  C4A ZID A 300       2.736 -33.051  10.679  1.00 23.66     0.142 A 
HETATM   22  N1A ZID A 300       0.806 -32.185   9.024  1.00 27.06    -0.337 N 
HETATM   23  C2A ZID A 300       1.789 -31.352   9.440  1.00 25.81     0.183 A 
ATOM     24  H1A ZID A 300       0.103 -31.845   8.369  1.00  0.00     0.168 HD
HETATM   25  N3A ZID A 300       2.751 -31.783  10.246  1.00 26.02    -0.336 N 
ATOM     26  H3A ZID A 300       3.499 -31.152  10.534  1.00  0.00     0.168 HD
BRANCH  20  27
HETATM   27  N6A ZID A 300      -0.269 -34.249   9.056  1.00 26.06    -0.383 N 
ATOM     28 2H6A ZID A 300      -0.857 -33.967   8.271  1.00  0.00     0.157 HD
ATOM     29 1H6A ZID A 300      -0.453 -35.147   9.504  1.00  0.00     0.157 HD
ENDBRANCH  20  27
ENDBRANCH  12  15
BRANCH  13  30
HETATM   30  O2B ZID A 300       6.267 -35.047  11.906  1.00 34.28    -0.388 OA
ATOM     31  H2B ZID A 300       6.395 -35.150  12.842  1.00  0.00     0.210 HD
ENDBRANCH  13  30
BRANCH  14  32
HETATM   32  O3B ZID A 300       7.457 -33.245  13.368  1.00 26.39    -0.390 OA
ATOM     33  H3B ZID A 300       7.239 -32.612  14.042  1.00  0.00     0.210 HD
ENDBRANCH  14  32
ENDBRANCH   9  10
ENDBRANCH   8   9
ENDBRANCH   5   8
ENDBRANCH   4   5
ENDBRANCH   1   4
BRANCH   1  34
HETATM   34  O5D ZID A 300       3.120 -26.979   8.422  1.00 27.38    -0.287 OA
BRANCH  34  35
HETATM   35  C5D ZID A 300       2.053 -27.862   8.092  1.00 26.32     0.216 C 
BRANCH  35  36
HETATM   36  C4D ZID A 300       0.723 -27.181   8.429  1.00 26.54     0.180 C 
HETATM   37  O4D ZID A 300      -0.034 -28.180   9.182  1.00 26.70    -0.353 OA
HETATM   38  C1D ZID A 300      -0.575 -27.531  10.292  1.00 24.37     0.259 C 
HETATM   39  C2D ZID A 300       0.516 -26.510  10.666  1.00 23.83     0.198 C 
HETATM   40  C3D ZID A 300       0.896 -25.934   9.327  1.00 24.97     0.182 C 
BRANCH  38  41
HETATM   41  N1N ZID A 300      -0.832 -28.318  11.475  1.00 25.28    -0.336 N 
HETATM   42  C2N ZID A 300      -0.041 -29.378  11.785  1.00 22.44     0.111 A 
HETATM   43  C3N ZID A 300      -0.265 -30.038  12.933  1.00 25.89     0.056 A 
HETATM   44  C4N ZID A 300      -1.318 -29.541  13.725  1.00 26.60    -0.007 A 
HETATM   45  C5N ZID A 300      -2.034 -28.409  13.437  1.00 27.45     0.028 A 
HETATM   46  C6N ZID A 300      -1.766 -27.824  12.259  1.00 24.23     0.094 A 
BRANCH  43  47
HETATM   47  C7N ZID A 300       0.510 -31.322  13.261  1.00 28.02     0.251 C 
HETATM   48  O7N ZID A 300       1.748 -31.315  13.399  1.00 26.84    -0.268 OA
HETATM   49  N7N ZID A 300      -0.089 -32.490  13.117  1.00 23.44    -0.366 N 
ATOM     50 2H7N ZID A 300      -1.103 -32.496  13.005  1.00  0.00     0.159 HD
ATOM     51 1H7N ZID A 300       0.426 -33.343  13.335  1.00  0.00     0.159 HD
ENDBRANCH  43  47
BRANCH  44  52
HETATM   52  C7Z ZID A 300      -1.204 -29.986  15.008  1.00 27.75     0.185 C 
BRANCH  52  53
HETATM   53  O7Z ZID A 300      -0.153 -28.887  15.199  1.00 23.71    -0.386 OA
ATOM     54  H7Z ZID A 300       0.079 -29.327  16.008  1.00  0.00     0.210 HD
ENDBRANCH  52  53
BRANCH  52  55
HETATM   55  C4Z ZID A 300      -1.869 -29.566  16.254  1.00 23.40    -0.023 A 
HETATM   56  C3Z ZID A 300      -2.890 -30.297  16.812  1.00 23.67     0.027 A 
HETATM   57  C2Z ZID A 300      -3.336 -29.911  18.068  1.00 22.98     0.088 A 
HETATM   58  N1Z ZID A 300      -2.772 -28.881  18.749  1.00 25.57    -0.375 N 
HETATM   59  C6Z ZID A 300      -1.717 -28.193  18.259  1.00 26.04     0.088 A 
ATOM     60  H1Z ZID A 300      -3.156 -28.620  19.658  1.00  0.00     0.164 HD
HETATM   61  C5Z ZID A 300      -1.238 -28.539  17.016  1.00 24.83     0.027 A 
ENDBRANCH  52  55
ENDBRANCH  44  52
ENDBRANCH  38  41
BRANCH  39  62
HETATM   62  O2D ZID A 300       0.165 -25.439  11.597  1.00 23.60    -0.388 OA
ATOM     63  H2D ZID A 300       0.828 -25.358  12.271  1.00  0.00     0.210 HD
ENDBRANCH  39  62
BRANCH  40  64
HETATM   64  O3D ZID A 300      -0.112 -24.929   8.997  1.00 26.13    -0.390 OA
ATOM     65  H3D ZID A 300      -0.033 -24.672   8.085  1.00  0.00     0.210 HD
ENDBRANCH  40  64
ENDBRANCH  35  36
ENDBRANCH  34  35
ENDBRANCH   1  34
TORSDOF 19
ENDMDL
MODEL 7
REMARK VINA RESULT:      -9.1      2.560      9.914
REMARK  19 active torsions:
REMARK  status: ('A' for Active; 'I' for Inactive)
REMARK    1  A    between atoms: PA_1  and  O5B_4 
REMARK    2  A    between atoms: PA_1  and  O3_30 
REMARK    3  A    between atoms: O5B_4  and  C5B_5 
REMARK    4  A    between atoms: C5B_5  and  C4B_6 
REMARK    5  A    between atoms: C3B_8  and  O3B_9 
REMARK    6  A    between atoms: C2B_11  and  O2B_12 
REMARK    7  A    between atoms: C1B_14  and  N9A_15 
REMARK    8  A    between atoms: C6A_20  and  N6A_21 
REMARK    9  A    between atoms: O3_30  and  PN_31 
REMARK   10  A    between atoms: PN_31  and  O5D_34 
REMARK   11  A    between atoms: O5D_34  and  C5D_35 
REMARK   12  A    between atoms: C5D_35  and  C4D_36 
REMARK   13  A    between atoms: C3D_38  and  O3D_39 
REMARK   14  A    between atoms: C2D_41  and  O2D_42 
REMARK   15  A    between atoms: C1D_44  and  N1N_45 
REMARK   16  A    between atoms: C3N_47  and  C7N_48 
REMARK       I    between atoms: C7N_48  and  N7N_50 
REMARK   17  A    between atoms: C4N_53  and  C7Z_56 
REMARK   18  A    between atoms: C7Z_56  and  O7Z_57 
REMARK   19  A    between atoms: C7Z_56  and  C4Z_63 
ROOT
HETATM    1  PN  ZID A 300       0.536 -32.408   8.279  1.00 26.51     0.417 P 
HETATM    2  O1N ZID A 300       1.983 -32.215   8.599  1.00 30.48    -0.624 OA
HETATM    3  O2N ZID A 300       0.071 -32.857   6.924  1.00 28.40    -0.624 OA
ENDROOT
BRANCH   1   4
HETATM    4  O3  ZID A 300      -0.181 -31.028   8.780  1.00 30.29    -0.180 OA
BRANCH   4   5
HETATM    5  PA  ZID A 300      -0.447 -29.660   7.903  1.00 28.62     0.417 P 
HETATM    6  O1A ZID A 300       0.366 -29.884   6.652  1.00 28.37    -0.624 OA
HETATM    7  O2A ZID A 300      -1.900 -29.300   7.877  1.00 30.19    -0.624 OA
BRANCH   5   8
HETATM    8  O5B ZID A 300       0.210 -28.544   8.831  1.00 29.52    -0.287 OA
BRANCH   8   9
HETATM    9  C5B ZID A 300       1.592 -28.241   8.808  1.00 27.76     0.216 C 
BRANCH   9  10
HETATM   10  C4B ZID A 300       1.982 -28.394  10.260  1.00 27.48     0.180 C 
HETATM   11  O4B ZID A 300       0.802 -28.582  11.032  1.00 27.81    -0.353 OA
HETATM   12  C1B ZID A 300       1.176 -29.410  12.099  1.00 28.20     0.262 C 
HETATM   13  C2B ZID A 300       2.047 -30.487  11.438  1.00 28.50     0.198 C 
HETATM   14  C3B ZID A 300       2.870 -29.638  10.499  1.00 25.42     0.182 C 
BRANCH  12  15
HETATM   15  N9A ZID A 300       0.083 -30.039  12.838  1.00 26.08    -0.297 N 
HETATM   16  C8A ZID A 300       0.159 -31.174  13.551  1.00 24.53     0.188 A 
HETATM   17  N7A ZID A 300      -1.012 -31.350  14.146  1.00 23.35    -0.346 N 
HETATM   18  C5A ZID A 300      -1.808 -30.286  13.853  1.00 25.38     0.122 A 
ATOM     19  H7A ZID A 300      -1.273 -32.149  14.725  1.00  0.00     0.167 HD
HETATM   20  C6A ZID A 300      -3.103 -29.933  14.199  1.00 23.71     0.131 A 
HETATM   21  C4A ZID A 300      -1.090 -29.457  13.043  1.00 23.66     0.142 A 
HETATM   22  N1A ZID A 300      -3.615 -28.807  13.691  1.00 27.06    -0.337 N 
HETATM   23  C2A ZID A 300      -2.868 -27.994  12.908  1.00 25.81     0.183 A 
ATOM     24  H1A ZID A 300      -4.582 -28.558  13.897  1.00  0.00     0.168 HD
HETATM   25  N3A ZID A 300      -1.626 -28.321  12.575  1.00 26.02    -0.336 N 
ATOM     26  H3A ZID A 300      -1.081 -27.711  11.965  1.00  0.00     0.168 HD
BRANCH  20  27
HETATM   27  N6A ZID A 300      -3.859 -30.710  15.009  1.00 26.06    -0.383 N 
ATOM     28 2H6A ZID A 300      -4.859 -30.530  15.095  1.00  0.00     0.157 HD
ATOM     29 1H6A ZID A 300      -3.459 -31.493  15.526  1.00  0.00     0.157 HD
ENDBRANCH  20  27
ENDBRANCH  12  15
BRANCH  13  30
HETATM   30  O2B ZID A 300       2.849 -31.186  12.402  1.00 34.28    -0.388 OA
ATOM     31  H2B ZID A 300       2.329 -31.692  13.016  1.00  0.00     0.210 HD
ENDBRANCH  13  30
BRANCH  14  32
HETATM   32  O3B ZID A 300       4.032 -29.213  11.175  1.00 26.39    -0.390 OA
ATOM     33  H3B ZID A 300       4.419 -28.507  10.670  1.00  0.00     0.210 HD
ENDBRANCH  14  32
ENDBRANCH   9  10
ENDBRANCH   8   9
ENDBRANCH   5   8
ENDBRANCH   4   5
ENDBRANCH   1   4
BRANCH   1  34
HETATM   34  O5D ZID A 300      -0.148 -33.394   9.317  1.00 27.38    -0.287 OA
BRANCH  34  35
HETATM   35  C5D ZID A 300       0.129 -33.368  10.714  1.00 26.32     0.216 C 
BRANCH  35  36
HETATM   36  C4D ZID A 300       0.595 -34.758  11.154  1.00 26.54     0.180 C 
HETATM   37  O4D ZID A 300       1.898 -34.940  10.516  1.00 26.70    -0.353 OA
HETATM   38  C1D ZID A 300       2.762 -35.447  11.487  1.00 24.37     0.259 C 
HETATM   39  C2D ZID A 300       2.289 -34.745  12.775  1.00 23.83     0.198 C 
HETATM   40  C3D ZID A 300       0.792 -34.871  12.685  1.00 24.97     0.182 C 
BRANCH  38  41
HETATM   41  N1N ZID A 300       4.171 -35.164  11.351  1.00 25.28    -0.336 N 
HETATM   42  C2N ZID A 300       4.787 -34.299  12.199  1.00 22.44     0.111 A 
HETATM   43  C3N ZID A 300       6.114 -34.121  12.088  1.00 25.89     0.056 A 
HETATM   44  C4N ZID A 300       6.749 -34.881  11.086  1.00 26.60    -0.007 A 
HETATM   45  C5N ZID A 300       6.119 -35.821  10.314  1.00 27.45     0.028 A 
HETATM   46  C6N ZID A 300       4.790 -35.918  10.467  1.00 24.23     0.094 A 
BRANCH  43  47
HETATM   47  C7N ZID A 300       6.832 -33.056  12.928  1.00 28.02     0.251 C 
HETATM   48  O7N ZID A 300       7.149 -33.269  14.113  1.00 26.84    -0.268 OA
HETATM   49  N7N ZID A 300       6.863 -31.808  12.495  1.00 23.44    -0.366 N 
ATOM     50 2H7N ZID A 300       6.605 -31.633  11.524  1.00  0.00     0.159 HD
ATOM     51 1H7N ZID A 300       7.341 -31.101  13.053  1.00  0.00     0.159 HD
ENDBRANCH  43  47
BRANCH  44  52
HETATM   52  C7Z ZID A 300       8.090 -34.952  11.317  1.00 27.75     0.185 C 
BRANCH  52  53
HETATM   53  O7Z ZID A 300       7.751 -35.939  12.440  1.00 23.71    -0.386 OA
ATOM     54  H7Z ZID A 300       8.194 -36.598  11.917  1.00  0.00     0.210 HD
ENDBRANCH  52  53
BRANCH  52  55
HETATM   55  C4Z ZID A 300       9.122 -35.876  10.816  1.00 23.40    -0.023 A 
HETATM   56  C3Z ZID A 300      10.157 -35.445  10.021  1.00 23.67     0.027 A 
HETATM   57  C2Z ZID A 300      11.166 -36.354   9.740  1.00 22.98     0.088 A 
HETATM   58  N1Z ZID A 300      11.168 -37.611  10.254  1.00 25.57    -0.375 N 
HETATM   59  C6Z ZID A 300      10.205 -38.039  11.099  1.00 26.04     0.088 A 
ATOM     60  H1Z ZID A 300      11.920 -38.250   9.994  1.00  0.00     0.164 HD
HETATM   61  C5Z ZID A 300       9.182 -37.171  11.408  1.00 24.83     0.027 A 
ENDBRANCH  52  55
ENDBRANCH  44  52
ENDBRANCH  38  41
BRANCH  39  62
HETATM   62  O2D ZID A 300       2.765 -35.265  14.055  1.00 23.60    -0.388 OA
ATOM     63  H2D ZID A 300       2.032 -35.542  14.591  1.00  0.00     0.210 HD
ENDBRANCH  39  62
BRANCH  40  64
HETATM   64  O3D ZID A 300       0.451 -36.216  13.140  1.00 26.13    -0.390 OA
ATOM     65  H3D ZID A 300       0.870 -36.397  13.974  1.00  0.00     0.210 HD
ENDBRANCH  40  64
ENDBRANCH  35  36
ENDBRANCH  34  35
ENDBRANCH   1  34
TORSDOF 19
ENDMDL
MODEL 8
REMARK VINA RESULT:      -9.0      2.023      3.420
REMARK  19 active torsions:
REMARK  status: ('A' for Active; 'I' for Inactive)
REMARK    1  A    between atoms: PA_1  and  O5B_4 
REMARK    2  A    between atoms: PA_1  and  O3_30 
REMARK    3  A    between atoms: O5B_4  and  C5B_5 
REMARK    4  A    between atoms: C5B_5  and  C4B_6 
REMARK    5  A    between atoms: C3B_8  and  O3B_9 
REMARK    6  A    between atoms: C2B_11  and  O2B_12 
REMARK    7  A    between atoms: C1B_14  and  N9A_15 
REMARK    8  A    between atoms: C6A_20  and  N6A_21 
REMARK    9  A    between atoms: O3_30  and  PN_31 
REMARK   10  A    between atoms: PN_31  and  O5D_34 
REMARK   11  A    between atoms: O5D_34  and  C5D_35 
REMARK   12  A    between atoms: C5D_35  and  C4D_36 
REMARK   13  A    between atoms: C3D_38  and  O3D_39 
REMARK   14  A    between atoms: C2D_41  and  O2D_42 
REMARK   15  A    between atoms: C1D_44  and  N1N_45 
REMARK   16  A    between atoms: C3N_47  and  C7N_48 
REMARK       I    between atoms: C7N_48  and  N7N_50 
REMARK   17  A    between atoms: C4N_53  and  C7Z_56 
REMARK   18  A    between atoms: C7Z_56  and  O7Z_57 
REMARK   19  A    between atoms: C7Z_56  and  C4Z_63 
ROOT
HETATM    1  PN  ZID A 300       3.882 -27.147   7.934  1.00 26.51     0.417 P 
HETATM    2  O1N ZID A 300       4.219 -27.389   6.498  1.00 30.48    -0.624 OA
HETATM    3  O2N ZID A 300       4.410 -25.961   8.689  1.00 28.40    -0.624 OA
ENDROOT
BRANCH   1   4
HETATM    4  O3  ZID A 300       4.196 -28.570   8.673  1.00 30.29    -0.180 OA
BRANCH   4   5
HETATM    5  PA  ZID A 300       4.421 -28.836  10.283  1.00 28.62     0.417 P 
HETATM    6  O1A ZID A 300       5.801 -28.284  10.537  1.00 28.37    -0.624 OA
HETATM    7  O2A ZID A 300       3.221 -28.427  11.078  1.00 30.19    -0.624 OA
BRANCH   5   8
HETATM    8  O5B ZID A 300       4.409 -30.427  10.356  1.00 29.52    -0.287 OA
BRANCH   8   9
HETATM    9  C5B ZID A 300       3.380 -31.160  10.994  1.00 27.76     0.216 C 
BRANCH   9  10
HETATM   10  C4B ZID A 300       3.347 -32.440  10.191  1.00 27.48     0.180 C 
HETATM   11  O4B ZID A 300       4.602 -33.095  10.324  1.00 27.81    -0.353 OA
HETATM   12  C1B ZID A 300       4.323 -34.466  10.253  1.00 28.20     0.262 C 
HETATM   13  C2B ZID A 300       3.078 -34.631  11.136  1.00 28.50     0.198 C 
HETATM   14  C3B ZID A 300       2.275 -33.427  10.709  1.00 25.42     0.182 C 
BRANCH  12  15
HETATM   15  N9A ZID A 300       5.382 -35.362  10.712  1.00 26.08    -0.297 N 
HETATM   16  C8A ZID A 300       6.115 -36.181   9.942  1.00 24.53     0.188 A 
HETATM   17  N7A ZID A 300       7.030 -36.746  10.718  1.00 23.35    -0.346 N 
HETATM   18  C5A ZID A 300       6.908 -36.231  11.971  1.00 25.38     0.122 A 
ATOM     19  H7A ZID A 300       7.710 -37.448  10.425  1.00  0.00     0.167 HD
HETATM   20  C6A ZID A 300       7.586 -36.437  13.163  1.00 23.71     0.131 A 
HETATM   21  C4A ZID A 300       5.875 -35.341  11.942  1.00 23.66     0.142 A 
HETATM   22  N1A ZID A 300       7.173 -35.782  14.252  1.00 27.06    -0.337 N 
HETATM   23  C2A ZID A 300       6.158 -34.888  14.186  1.00 25.81     0.183 A 
ATOM     24  H1A ZID A 300       7.629 -35.958  15.147  1.00  0.00     0.168 HD
HETATM   25  N3A ZID A 300       5.506 -34.681  13.049  1.00 26.02    -0.336 N 
ATOM     26  H3A ZID A 300       4.728 -34.022  13.017  1.00  0.00     0.168 HD
BRANCH  20  27
HETATM   27  N6A ZID A 300       8.626 -37.298  13.249  1.00 26.06    -0.383 N 
ATOM     28 2H6A ZID A 300       9.178 -37.510  12.418  1.00  0.00     0.157 HD
ATOM     29 1H6A ZID A 300       8.891 -37.731  14.133  1.00  0.00     0.157 HD
ENDBRANCH  20  27
ENDBRANCH  12  15
BRANCH  13  30
HETATM   30  O2B ZID A 300       2.403 -35.872  10.874  1.00 34.28    -0.388 OA
ATOM     31  H2B ZID A 300       2.962 -36.629  11.001  1.00  0.00     0.210 HD
ENDBRANCH  13  30
BRANCH  14  32
HETATM   32  O3B ZID A 300       1.461 -33.790   9.616  1.00 26.39    -0.390 OA
ATOM     33  H3B ZID A 300       0.630 -33.340   9.711  1.00  0.00     0.210 HD
ENDBRANCH  14  32
ENDBRANCH   9  10
ENDBRANCH   8   9
ENDBRANCH   5   8
ENDBRANCH   4   5
ENDBRANCH   1   4
BRANCH   1  34
HETATM   34  O5D ZID A 300       2.311 -27.133   8.154  1.00 27.38    -0.287 OA
BRANCH  34  35
HETATM   35  C5D ZID A 300       1.495 -28.292   8.012  1.00 26.32     0.216 C 
BRANCH  35  36
HETATM   36  C4D ZID A 300       0.034 -27.902   8.252  1.00 26.54     0.180 C 
HETATM   37  O4D ZID A 300      -0.470 -28.888   9.207  1.00 26.70    -0.353 OA
HETATM   38  C1D ZID A 300      -1.173 -28.187  10.187  1.00 24.37     0.259 C 
HETATM   39  C2D ZID A 300      -0.370 -26.879  10.323  1.00 23.83     0.198 C 
HETATM   40  C3D ZID A 300      -0.119 -26.499   8.888  1.00 24.97     0.182 C 
BRANCH  38  41
HETATM   41  N1N ZID A 300      -1.251 -28.767  11.507  1.00 25.28    -0.336 N 
HETATM   42  C2N ZID A 300      -0.399 -29.759  11.877  1.00 22.44     0.111 A 
HETATM   43  C3N ZID A 300      -0.452 -30.220  13.137  1.00 25.89     0.056 A 
HETATM   44  C4N ZID A 300      -1.403 -29.601  13.972  1.00 26.60    -0.007 A 
HETATM   45  C5N ZID A 300      -2.179 -28.534  13.601  1.00 27.45     0.028 A 
HETATM   46  C6N ZID A 300      -2.084 -28.152  12.319  1.00 24.23     0.094 A 
BRANCH  43  47
HETATM   47  C7N ZID A 300       0.391 -31.430  13.565  1.00 28.02     0.251 C 
HETATM   48  O7N ZID A 300       1.593 -31.307  13.868  1.00 26.84    -0.268 OA
HETATM   49  N7N ZID A 300      -0.069 -32.646  13.338  1.00 23.44    -0.366 N 
ATOM     50 2H7N ZID A 300      -1.053 -32.747  13.090  1.00  0.00     0.159 HD
ATOM     51 1H7N ZID A 300       0.492 -33.450  13.622  1.00  0.00     0.159 HD
ENDBRANCH  43  47
BRANCH  44  52
HETATM   52  C7Z ZID A 300      -1.109 -29.826  15.284  1.00 27.75     0.185 C 
BRANCH  52  53
HETATM   53  O7Z ZID A 300      -0.358 -28.489  15.250  1.00 23.71    -0.386 OA
ATOM     54  H7Z ZID A 300      -1.202 -28.085  15.085  1.00  0.00     0.210 HD
ENDBRANCH  52  53
BRANCH  52  55
HETATM   55  C4Z ZID A 300      -1.787 -29.414  16.525  1.00 23.40    -0.023 A 
HETATM   56  C3Z ZID A 300      -2.781 -30.173  17.094  1.00 23.67     0.027 A 
HETATM   57  C2Z ZID A 300      -3.238 -29.787  18.345  1.00 22.98     0.088 A 
HETATM   58  N1Z ZID A 300      -2.710 -28.731  19.013  1.00 25.57    -0.375 N 
HETATM   59  C6Z ZID A 300      -1.680 -28.012  18.514  1.00 26.04     0.088 A 
ATOM     60  H1Z ZID A 300      -3.102 -28.472  19.919  1.00  0.00     0.164 HD
HETATM   61  C5Z ZID A 300      -1.191 -28.357  17.274  1.00 24.83     0.027 A 
ENDBRANCH  52  55
ENDBRANCH  44  52
ENDBRANCH  38  41
BRANCH  39  62
HETATM   62  O2D ZID A 300      -0.988 -25.766  11.040  1.00 23.60    -0.388 OA
ATOM     63  H2D ZID A 300      -1.165 -26.012  11.941  1.00  0.00     0.210 HD
ENDBRANCH  39  62
BRANCH  40  64
HETATM   64  O3D ZID A 300      -1.336 -25.854   8.401  1.00 26.13    -0.390 OA
ATOM     65  H3D ZID A 300      -1.952 -26.507   8.089  1.00  0.00     0.210 HD
ENDBRANCH  40  64
ENDBRANCH  35  36
ENDBRANCH  34  35
ENDBRANCH   1  34
TORSDOF 19
ENDMDL
MODEL 9
REMARK VINA RESULT:      -8.9      3.961     10.417
REMARK  19 active torsions:
REMARK  status: ('A' for Active; 'I' for Inactive)
REMARK    1  A    between atoms: PA_1  and  O5B_4 
REMARK    2  A    between atoms: PA_1  and  O3_30 
REMARK    3  A    between atoms: O5B_4  and  C5B_5 
REMARK    4  A    between atoms: C5B_5  and  C4B_6 
REMARK    5  A    between atoms: C3B_8  and  O3B_9 
REMARK    6  A    between atoms: C2B_11  and  O2B_12 
REMARK    7  A    between atoms: C1B_14  and  N9A_15 
REMARK    8  A    between atoms: C6A_20  and  N6A_21 
REMARK    9  A    between atoms: O3_30  and  PN_31 
REMARK   10  A    between atoms: PN_31  and  O5D_34 
REMARK   11  A    between atoms: O5D_34  and  C5D_35 
REMARK   12  A    between atoms: C5D_35  and  C4D_36 
REMARK   13  A    between atoms: C3D_38  and  O3D_39 
REMARK   14  A    between atoms: C2D_41  and  O2D_42 
REMARK   15  A    between atoms: C1D_44  and  N1N_45 
REMARK   16  A    between atoms: C3N_47  and  C7N_48 
REMARK       I    between atoms: C7N_48  and  N7N_50 
REMARK   17  A    between atoms: C4N_53  and  C7Z_56 
REMARK   18  A    between atoms: C7Z_56  and  O7Z_57 
REMARK   19  A    between atoms: C7Z_56  and  C4Z_63 
ROOT
HETATM    1  PN  ZID A 300       0.304 -29.970   9.095  1.00 26.51     0.417 P 
HETATM    2  O1N ZID A 300       0.541 -30.625   7.773  1.00 30.48    -0.624 OA
HETATM    3  O2N ZID A 300      -0.911 -29.127   9.363  1.00 28.40    -0.624 OA
ENDROOT
BRANCH   1   4
HETATM    4  O3  ZID A 300       1.705 -29.198   9.427  1.00 30.29    -0.180 OA
BRANCH   4   5
HETATM    5  PA  ZID A 300       1.953 -27.994  10.523  1.00 28.62     0.417 P 
HETATM    6  O1A ZID A 300       1.756 -26.738   9.711  1.00 28.37    -0.624 OA
HETATM    7  O2A ZID A 300       1.223 -28.259  11.802  1.00 30.19    -0.624 OA
BRANCH   5   8
HETATM    8  O5B ZID A 300       3.486 -28.206  10.901  1.00 29.52    -0.287 OA
BRANCH   8   9
HETATM    9  C5B ZID A 300       4.253 -29.294  10.422  1.00 27.76     0.216 C 
BRANCH   9  10
HETATM   10  C4B ZID A 300       5.338 -28.602   9.629  1.00 27.48     0.180 C 
HETATM   11  O4B ZID A 300       4.956 -28.573   8.260  1.00 27.81    -0.353 OA
HETATM   12  C1B ZID A 300       5.500 -27.392   7.739  1.00 28.20     0.262 C 
HETATM   13  C2B ZID A 300       5.200 -26.345   8.820  1.00 28.50     0.198 C 
HETATM   14  C3B ZID A 300       5.531 -27.131  10.066  1.00 25.42     0.182 C 
BRANCH  12  15
HETATM   15  N9A ZID A 300       4.964 -26.949   6.454  1.00 26.08    -0.297 N 
HETATM   16  C8A ZID A 300       5.683 -26.574   5.383  1.00 24.53     0.188 A 
HETATM   17  N7A ZID A 300       4.832 -26.343   4.393  1.00 23.35    -0.346 N 
HETATM   18  C5A ZID A 300       3.576 -26.634   4.829  1.00 25.38     0.122 A 
ATOM     19  H7A ZID A 300       5.078 -26.004   3.463  1.00  0.00     0.167 HD
HETATM   20  C6A ZID A 300       2.323 -26.592   4.238  1.00 23.71     0.131 A 
HETATM   21  C4A ZID A 300       3.683 -27.037   6.127  1.00 23.66     0.142 A 
HETATM   22  N1A ZID A 300       1.258 -26.912   4.979  1.00 27.06    -0.337 N 
HETATM   23  C2A ZID A 300       1.399 -27.330   6.259  1.00 25.81     0.183 A 
ATOM     24  H1A ZID A 300       0.325 -26.840   4.575  1.00  0.00     0.168 HD
HETATM   25  N3A ZID A 300       2.596 -27.377   6.832  1.00 26.02    -0.336 N 
ATOM     26  H3A ZID A 300       2.687 -27.671   7.805  1.00  0.00     0.168 HD
BRANCH  20  27
HETATM   27  N6A ZID A 300       2.157 -26.213   2.950  1.00 26.06    -0.383 N 
ATOM     28 2H6A ZID A 300       2.916 -25.740   2.459  1.00  0.00     0.157 HD
ATOM     29 1H6A ZID A 300       1.294 -26.406   2.442  1.00  0.00     0.157 HD
ENDBRANCH  20  27
ENDBRANCH  12  15
BRANCH  13  30
HETATM   30  O2B ZID A 300       6.020 -25.175   8.667  1.00 34.28    -0.388 OA
ATOM     31  H2B ZID A 300       6.725 -25.134   9.303  1.00  0.00     0.210 HD
ENDBRANCH  13  30
BRANCH  14  32
HETATM   32  O3B ZID A 300       6.896 -26.947  10.367  1.00 26.39    -0.390 OA
ATOM     33  H3B ZID A 300       7.387 -27.047   9.560  1.00  0.00     0.210 HD
ENDBRANCH  14  32
ENDBRANCH   9  10
ENDBRANCH   8   9
ENDBRANCH   5   8
ENDBRANCH   4   5
ENDBRANCH   1   4
BRANCH   1  34
HETATM   34  O5D ZID A 300       0.360 -31.031  10.273  1.00 27.38    -0.287 OA
BRANCH  34  35
HETATM   35  C5D ZID A 300       1.002 -32.296  10.151  1.00 26.32     0.216 C 
BRANCH  35  36
HETATM   36  C4D ZID A 300       1.286 -32.846  11.552  1.00 26.54     0.180 C 
HETATM   37  O4D ZID A 300       2.064 -34.064  11.330  1.00 26.70    -0.353 OA
HETATM   38  C1D ZID A 300       3.136 -34.032  12.222  1.00 24.37     0.259 C 
HETATM   39  C2D ZID A 300       3.490 -32.534  12.288  1.00 23.83     0.198 C 
HETATM   40  C3D ZID A 300       2.138 -31.885  12.415  1.00 24.97     0.182 C 
BRANCH  38  41
HETATM   41  N1N ZID A 300       4.344 -34.730  11.849  1.00 25.28    -0.336 N 
HETATM   42  C2N ZID A 300       5.152 -35.269  12.799  1.00 22.44     0.111 A 
HETATM   43  C3N ZID A 300       6.225 -35.976  12.410  1.00 25.89     0.056 A 
HETATM   44  C4N ZID A 300       6.400 -36.100  11.018  1.00 26.60    -0.007 A 
HETATM   45  C5N ZID A 300       5.514 -35.632  10.083  1.00 27.45     0.028 A 
HETATM   46  C6N ZID A 300       4.483 -34.914  10.554  1.00 24.23     0.094 A 
BRANCH  43  47
HETATM   47  C7N ZID A 300       7.241 -36.487  13.441  1.00 28.02     0.251 C 
HETATM   48  O7N ZID A 300       8.312 -35.886  13.649  1.00 26.84    -0.268 OA
HETATM   49  N7N ZID A 300       7.123 -37.718  13.906  1.00 23.44    -0.366 N 
ATOM     50 2H7N ZID A 300       6.246 -38.210  13.736  1.00  0.00     0.159 HD
ATOM     51 1H7N ZID A 300       7.798 -38.057  14.591  1.00  0.00     0.159 HD
ENDBRANCH  43  47
BRANCH  44  52
HETATM   52  C7Z ZID A 300       7.233 -37.139  10.730  1.00 27.75     0.185 C 
BRANCH  52  53
HETATM   53  O7Z ZID A 300       6.640 -37.102   9.316  1.00 23.71    -0.386 OA
ATOM     54  H7Z ZID A 300       7.385 -36.562   9.080  1.00  0.00     0.210 HD
ENDBRANCH  52  53
BRANCH  52  55
HETATM   55  C4Z ZID A 300       8.591 -37.178  10.160  1.00 23.40    -0.023 A 
HETATM   56  C3Z ZID A 300       8.937 -36.430   9.060  1.00 23.67     0.027 A 
HETATM   57  C2Z ZID A 300      10.277 -36.407   8.703  1.00 22.98     0.088 A 
HETATM   58  N1Z ZID A 300      11.227 -37.058   9.421  1.00 25.57    -0.375 N 
HETATM   59  C6Z ZID A 300      10.929 -37.739  10.549  1.00 26.04     0.088 A 
ATOM     60  H1Z ZID A 300      12.195 -37.032   9.099  1.00  0.00     0.164 HD
HETATM   61  C5Z ZID A 300       9.611 -37.790  10.946  1.00 24.83     0.027 A 
ENDBRANCH  52  55
ENDBRANCH  44  52
ENDBRANCH  38  41
BRANCH  39  62
HETATM   62  O2D ZID A 300       4.371 -32.084  13.364  1.00 23.60    -0.388 OA
ATOM     63  H2D ZID A 300       4.624 -32.818  13.911  1.00  0.00     0.210 HD
ENDBRANCH  39  62
BRANCH  40  64
HETATM   64  O3D ZID A 300       1.748 -31.987  13.820  1.00 26.13    -0.390 OA
ATOM     65  H3D ZID A 300       1.901 -32.869  14.139  1.00  0.00     0.210 HD
ENDBRANCH  40  64
ENDBRANCH  35  36
ENDBRANCH  34  35
ENDBRANCH   1  34
TORSDOF 19
ENDMDL
