MODEL 1
REMARK VINA RESULT:      -5.8      0.000      0.000
REMARK  2 active torsions:
REMARK  status: ('A' for Active; 'I' for Inactive)
REMARK    1  A    between atoms: N2_2  and  N4_5 
REMARK       I    between atoms: N2_2  and  C8_9 
REMARK    2  A    between atoms: C5_6  and  C8_9 
ROOT
HETATM    1  N3          0      -0.728 -25.036  18.260  1.00  0.00    -0.375 N 
ATOM      2  H3          0      -0.794 -24.152  18.764  1.00  0.00     0.164 HD
HETATM    3  C5          0      -0.546 -27.459  16.876  1.00  0.00     0.035 A 
HETATM    4  C6          0      -1.185 -27.406  18.110  1.00  0.00     0.034 A 
HETATM    5  C7          0       0.001 -26.301  16.333  1.00  0.00     0.034 A 
HETATM    6  C9          0      -1.248 -26.181  18.756  1.00  0.00     0.088 A 
HETATM    7  C10         0      -0.116 -25.127  17.058  1.00  0.00     0.088 A 
ENDROOT
BRANCH   3   8
HETATM    8  C8          0      -0.450 -28.718  16.157  1.00  0.00     0.265 C 
HETATM    9  O1          0      -1.372 -29.552  16.220  1.00  0.00    -0.266 OA
HETATM   10  N2          0       0.702 -28.923  15.394  1.00  0.00    -0.290 N 
HETATM   11  H15         0       1.432 -28.226  15.294  1.00  0.00     0.183 HD
BRANCH  10  12
HETATM   12  N4          0       0.852 -30.091  14.669  1.00  0.00    -0.247 NA
HETATM   13  H16         0       0.093 -30.711  14.948  1.00  0.00     0.143 HD
HETATM   14  H17         0       0.681 -29.856  13.694  1.00  0.00     0.143 HD
ENDBRANCH  10  12
ENDBRANCH   3   8
TORSDOF 2
ENDMDL
MODEL 2
REMARK VINA RESULT:      -5.4     23.872     25.108
REMARK  2 active torsions:
REMARK  status: ('A' for Active; 'I' for Inactive)
REMARK    1  A    between atoms: N2_2  and  N4_5 
REMARK       I    between atoms: N2_2  and  C8_9 
REMARK    2  A    between atoms: C5_6  and  C8_9 
ROOT
HETATM    1  N3          0      19.351 -38.572  13.101  1.00  0.00    -0.375 N 
ATOM      2  H3          0      19.142 -37.645  13.472  1.00  0.00     0.164 HD
HETATM    3  C5          0      19.924 -41.114  12.087  1.00  0.00     0.035 A 
HETATM    4  C6          0      18.676 -40.540  11.869  1.00  0.00     0.034 A 
HETATM    5  C7          0      20.886 -40.416  12.810  1.00  0.00     0.034 A 
HETATM    6  C9          0      18.441 -39.279  12.393  1.00  0.00     0.088 A 
HETATM    7  C10         0      20.552 -39.161  13.291  1.00  0.00     0.088 A 
ENDROOT
BRANCH   3   8
HETATM    8  C8          0      20.222 -42.435  11.560  1.00  0.00     0.265 C 
HETATM    9  O1          0      19.344 -43.091  10.970  1.00  0.00    -0.266 OA
HETATM   10  N2          0      21.526 -42.905  11.736  1.00  0.00    -0.290 N 
HETATM   11  H15         0      22.260 -42.354  12.167  1.00  0.00     0.183 HD
BRANCH  10  12
HETATM   12  N4          0      21.885 -44.146  11.244  1.00  0.00    -0.247 NA
HETATM   13  H16         0      21.606 -44.833  11.945  1.00  0.00     0.143 HD
HETATM   14  H17         0      21.299 -44.322  10.430  1.00  0.00     0.143 HD
ENDBRANCH  10  12
ENDBRANCH   3   8
TORSDOF 2
ENDMDL
MODEL 3
REMARK VINA RESULT:      -5.3      9.907     10.483
REMARK  2 active torsions:
REMARK  status: ('A' for Active; 'I' for Inactive)
REMARK    1  A    between atoms: N2_2  and  N4_5 
REMARK       I    between atoms: N2_2  and  C8_9 
REMARK    2  A    between atoms: C5_6  and  C8_9 
ROOT
HETATM    1  N3          0       6.220 -34.780  11.965  1.00  0.00    -0.375 N 
ATOM      2  H3          0       7.211 -34.535  11.961  1.00  0.00     0.164 HD
HETATM    3  C5          0       3.507 -35.454  11.975  1.00  0.00     0.035 A 
HETATM    4  C6          0       4.175 -35.230  13.173  1.00  0.00     0.034 A 
HETATM    5  C7          0       4.194 -35.338  10.771  1.00  0.00     0.034 A 
HETATM    6  C9          0       5.520 -34.900  13.115  1.00  0.00     0.088 A 
HETATM    7  C10         0       5.537 -35.003  10.820  1.00  0.00     0.088 A 
ENDROOT
BRANCH   3   8
HETATM    8  C8          0       2.097 -35.804  11.980  1.00  0.00     0.265 C 
HETATM    9  O1          0       1.520 -36.113  10.920  1.00  0.00    -0.266 OA
HETATM   10  N2          0       1.448 -35.793  13.217  1.00  0.00    -0.290 N 
HETATM   11  H15         0       1.924 -35.596  14.091  1.00  0.00     0.183 HD
BRANCH  10  12
HETATM   12  N4          0       0.111 -36.134  13.300  1.00  0.00    -0.247 NA
HETATM   13  H16         0      -0.383 -35.558  12.619  1.00  0.00     0.143 HD
HETATM   14  H17         0       0.030 -37.093  12.968  1.00  0.00     0.143 HD
ENDBRANCH  10  12
ENDBRANCH   3   8
TORSDOF 2
ENDMDL
MODEL 4
REMARK VINA RESULT:      -5.0      3.610      4.696
REMARK  2 active torsions:
REMARK  status: ('A' for Active; 'I' for Inactive)
REMARK    1  A    between atoms: N2_2  and  N4_5 
REMARK       I    between atoms: N2_2  and  C8_9 
REMARK    2  A    between atoms: C5_6  and  C8_9 
ROOT
HETATM    1  N3          0      -1.094 -27.676  12.907  1.00  0.00    -0.375 N 
ATOM      2  H3          0      -0.611 -27.086  12.229  1.00  0.00     0.164 HD
HETATM    3  C5          0      -2.416 -29.291  14.767  1.00  0.00     0.035 A 
HETATM    4  C6          0      -3.049 -28.927  13.583  1.00  0.00     0.034 A 
HETATM    5  C7          0      -1.122 -28.848  15.021  1.00  0.00     0.034 A 
HETATM    6  C9          0      -2.351 -28.125  12.694  1.00  0.00     0.088 A 
HETATM    7  C10         0      -0.511 -28.051  14.068  1.00  0.00     0.088 A 
ENDROOT
BRANCH   3   8
HETATM    8  C8          0      -3.104 -30.129  15.735  1.00  0.00     0.265 C 
HETATM    9  O1          0      -2.672 -30.234  16.897  1.00  0.00    -0.266 OA
HETATM   10  N2          0      -4.261 -30.778  15.297  1.00  0.00    -0.290 N 
HETATM   11  H15         0      -4.649 -30.653  14.368  1.00  0.00     0.183 HD
BRANCH  10  12
HETATM   12  N4          0      -4.977 -31.577  16.169  1.00  0.00    -0.247 NA
HETATM   13  H16         0      -5.851 -31.817  15.701  1.00  0.00     0.143 HD
HETATM   14  H17         0      -4.459 -32.449  16.262  1.00  0.00     0.143 HD
ENDBRANCH  10  12
ENDBRANCH   3   8
TORSDOF 2
ENDMDL
MODEL 5
REMARK VINA RESULT:      -5.0     21.973     22.650
REMARK  2 active torsions:
REMARK  status: ('A' for Active; 'I' for Inactive)
REMARK    1  A    between atoms: N2_2  and  N4_5 
REMARK       I    between atoms: N2_2  and  C8_9 
REMARK    2  A    between atoms: C5_6  and  C8_9 
ROOT
HETATM    1  N3          0      23.882 -25.998  12.161  1.00  0.00    -0.375 N 
ATOM      2  H3          0      24.679 -25.366  12.077  1.00  0.00     0.164 HD
HETATM    3  C5          0      21.697 -27.728  12.391  1.00  0.00     0.035 A 
HETATM    4  C6          0      22.467 -27.423  13.508  1.00  0.00     0.034 A 
HETATM    5  C7          0      22.018 -27.166  11.159  1.00  0.00     0.034 A 
HETATM    6  C9          0      23.540 -26.561  13.342  1.00  0.00     0.088 A 
HETATM    7  C10         0      23.110 -26.316  11.099  1.00  0.00     0.088 A 
ENDROOT
BRANCH   3   8
HETATM    8  C8          0      20.563 -28.627  12.510  1.00  0.00     0.265 C 
HETATM    9  O1          0      19.940 -28.718  13.584  1.00  0.00    -0.266 OA
HETATM   10  N2          0      20.210 -29.352  11.369  1.00  0.00    -0.290 N 
HETATM   11  H15         0      20.678 -29.243  10.476  1.00  0.00     0.183 HD
BRANCH  10  12
HETATM   12  N4          0      19.129 -30.214  11.404  1.00  0.00    -0.247 NA
HETATM   13  H16         0      18.589 -30.045  10.556  1.00  0.00     0.143 HD
HETATM   14  H17         0      19.501 -31.158  11.317  1.00  0.00     0.143 HD
ENDBRANCH  10  12
ENDBRANCH   3   8
TORSDOF 2
ENDMDL
MODEL 6
REMARK VINA RESULT:      -5.0      9.132      9.916
REMARK  2 active torsions:
REMARK  status: ('A' for Active; 'I' for Inactive)
REMARK    1  A    between atoms: N2_2  and  N4_5 
REMARK       I    between atoms: N2_2  and  C8_9 
REMARK    2  A    between atoms: C5_6  and  C8_9 
ROOT
HETATM    1  N3          0       4.614 -33.767   9.910  1.00  0.00    -0.375 N 
ATOM      2  H3          0       5.485 -33.528   9.435  1.00  0.00     0.164 HD
HETATM    3  C5          0       2.228 -34.423  11.212  1.00  0.00     0.035 A 
HETATM    4  C6          0       2.414 -33.145  10.695  1.00  0.00     0.034 A 
HETATM    5  C7          0       3.235 -35.373  11.075  1.00  0.00     0.034 A 
HETATM    6  C9          0       3.614 -32.870  10.060  1.00  0.00     0.088 A 
HETATM    7  C10         0       4.397 -34.998  10.423  1.00  0.00     0.088 A 
ENDROOT
BRANCH   3   8
HETATM    8  C8          0       0.989 -34.764  11.889  1.00  0.00     0.265 C 
HETATM    9  O1          0      -0.077 -34.205  11.572  1.00  0.00    -0.266 OA
HETATM   10  N2          0       1.061 -35.746  12.880  1.00  0.00    -0.290 N 
HETATM   11  H15         0       1.915 -36.245  13.105  1.00  0.00     0.183 HD
BRANCH  10  12
HETATM   12  N4          0      -0.083 -36.134  13.553  1.00  0.00    -0.247 NA
HETATM   13  H16         0       0.170 -36.222  14.537  1.00  0.00     0.143 HD
HETATM   14  H17         0      -0.735 -35.354  13.499  1.00  0.00     0.143 HD
ENDBRANCH  10  12
ENDBRANCH   3   8
TORSDOF 2
ENDMDL
MODEL 7
REMARK VINA RESULT:      -4.8      9.638     10.362
REMARK  2 active torsions:
REMARK  status: ('A' for Active; 'I' for Inactive)
REMARK    1  A    between atoms: N2_2  and  N4_5 
REMARK       I    between atoms: N2_2  and  C8_9 
REMARK    2  A    between atoms: C5_6  and  C8_9 
ROOT
HETATM    1  N3          0       2.964 -35.751  10.997  1.00  0.00    -0.375 N 
ATOM      2  H3          0       2.426 -35.949  10.152  1.00  0.00     0.164 HD
HETATM    3  C5          0       4.437 -35.208  13.310  1.00  0.00     0.035 A 
HETATM    4  C6          0       3.080 -35.499  13.398  1.00  0.00     0.034 A 
HETATM    5  C7          0       5.058 -35.191  12.065  1.00  0.00     0.034 A 
HETATM    6  C9          0       2.394 -35.760  12.223  1.00  0.00     0.088 A 
HETATM    7  C10         0       4.284 -35.466  10.951  1.00  0.00     0.088 A 
ENDROOT
BRANCH   3   8
HETATM    8  C8          0       5.203 -34.925  14.512  1.00  0.00     0.265 C 
HETATM    9  O1          0       6.447 -34.887  14.473  1.00  0.00    -0.266 OA
HETATM   10  N2          0       4.476 -34.685  15.681  1.00  0.00    -0.290 N 
HETATM   11  H15         0       3.463 -34.660  15.708  1.00  0.00     0.183 HD
BRANCH  10  12
HETATM   12  N4          0       5.139 -34.391  16.858  1.00  0.00    -0.247 NA
HETATM   13  H16         0       6.135 -34.505  16.673  1.00  0.00     0.143 HD
HETATM   14  H17         0       4.997 -33.398  17.036  1.00  0.00     0.143 HD
ENDBRANCH  10  12
ENDBRANCH   3   8
TORSDOF 2
ENDMDL
MODEL 8
REMARK VINA RESULT:      -4.7     11.350     13.359
REMARK  2 active torsions:
REMARK  status: ('A' for Active; 'I' for Inactive)
REMARK    1  A    between atoms: N2_2  and  N4_5 
REMARK       I    between atoms: N2_2  and  C8_9 
REMARK    2  A    between atoms: C5_6  and  C8_9 
ROOT
HETATM    1  N3          0       8.404 -38.269  10.627  1.00  0.00    -0.375 N 
ATOM      2  H3          0       8.686 -38.883   9.863  1.00  0.00     0.164 HD
HETATM    3  C5          0       7.629 -36.586  12.721  1.00  0.00     0.035 A 
HETATM    4  C6          0       8.730 -37.422  12.868  1.00  0.00     0.034 A 
HETATM    5  C7          0       6.916 -36.589  11.526  1.00  0.00     0.034 A 
HETATM    6  C9          0       9.073 -38.238  11.802  1.00  0.00     0.088 A 
HETATM    7  C10         0       7.341 -37.441  10.520  1.00  0.00     0.088 A 
ENDROOT
BRANCH   3   8
HETATM    8  C8          0       7.225 -35.712  13.809  1.00  0.00     0.265 C 
HETATM    9  O1          0       7.220 -36.127  14.983  1.00  0.00    -0.266 OA
HETATM   10  N2          0       6.871 -34.403  13.470  1.00  0.00    -0.290 N 
HETATM   11  H15         0       6.927 -34.042  12.524  1.00  0.00     0.183 HD
BRANCH  10  12
HETATM   12  N4          0       6.495 -33.511  14.456  1.00  0.00    -0.247 NA
HETATM   13  H16         0       5.776 -33.972  15.013  1.00  0.00     0.143 HD
HETATM   14  H17         0       7.297 -33.397  15.073  1.00  0.00     0.143 HD
ENDBRANCH  10  12
ENDBRANCH   3   8
TORSDOF 2
ENDMDL
MODEL 9
REMARK VINA RESULT:      -4.6      8.165      8.886
REMARK  2 active torsions:
REMARK  status: ('A' for Active; 'I' for Inactive)
REMARK    1  A    between atoms: N2_2  and  N4_5 
REMARK       I    between atoms: N2_2  and  C8_9 
REMARK    2  A    between atoms: C5_6  and  C8_9 
ROOT
HETATM    1  N3          0       4.427 -32.003  12.074  1.00  0.00    -0.375 N 
ATOM      2  H3          0       5.090 -31.231  12.004  1.00  0.00     0.164 HD
HETATM    3  C5          0       2.609 -34.119  12.265  1.00  0.00     0.035 A 
HETATM    4  C6          0       3.954 -34.326  12.550  1.00  0.00     0.034 A 
HETATM    5  C7          0       2.172 -32.854  11.887  1.00  0.00     0.034 A 
HETATM    6  C9          0       4.815 -33.246  12.439  1.00  0.00     0.088 A 
HETATM    7  C10         0       3.112 -31.840  11.807  1.00  0.00     0.088 A 
ENDROOT
BRANCH   3   8
HETATM    8  C8          0       1.664 -35.218  12.364  1.00  0.00     0.265 C 
HETATM    9  O1          0       1.709 -36.163  11.554  1.00  0.00    -0.266 OA
HETATM   10  N2          0       0.737 -35.162  13.408  1.00  0.00    -0.290 N 
HETATM   11  H15         0       0.730 -34.424  14.104  1.00  0.00     0.183 HD
BRANCH  10  12
HETATM   12  N4          0      -0.180 -36.183  13.574  1.00  0.00    -0.247 NA
HETATM   13  H16         0      -0.120 -36.479  14.548  1.00  0.00     0.143 HD
HETATM   14  H17         0      -1.104 -35.771  13.461  1.00  0.00     0.143 HD
ENDBRANCH  10  12
ENDBRANCH   3   8
TORSDOF 2
ENDMDL
