MODEL 1
REMARK VINA RESULT:     -10.5      0.000      0.000
REMARK  19 active torsions:
REMARK  status: ('A' for Active; 'I' for Inactive)
REMARK    1  A    between atoms: PA_1  and  O5B_4 
REMARK    2  A    between atoms: PA_1  and  O3_30 
REMARK    3  A    between atoms: O5B_4  and  C5B_5 
REMARK    4  A    between atoms: C5B_5  and  C4B_6 
REMARK    5  A    between atoms: C3B_8  and  O3B_9 
REMARK    6  A    between atoms: C2B_11  and  O2B_12 
REMARK    7  A    between atoms: C1B_14  and  N9A_15 
REMARK    8  A    between atoms: C6A_20  and  N6A_21 
REMARK    9  A    between atoms: O3_30  and  PN_31 
REMARK   10  A    between atoms: PN_31  and  O5D_34 
REMARK   11  A    between atoms: O5D_34  and  C5D_35 
REMARK   12  A    between atoms: C5D_35  and  C4D_36 
REMARK   13  A    between atoms: C3D_38  and  O3D_39 
REMARK   14  A    between atoms: C2D_41  and  O2D_42 
REMARK   15  A    between atoms: C1D_44  and  N1N_45 
REMARK   16  A    between atoms: C3N_47  and  C7N_48 
REMARK       I    between atoms: C7N_48  and  N7N_50 
REMARK   17  A    between atoms: C4N_53  and  C7Z_56 
REMARK   18  A    between atoms: C7Z_56  and  O7Z_57 
REMARK   19  A    between atoms: C7Z_56  and  C4Z_63 
ROOT
HETATM    1  PN  ZID A 300       0.500 -33.205  10.077  1.00 26.51     0.417 P 
HETATM    2  O1N ZID A 300      -0.180 -33.454  11.384  1.00 30.48    -0.624 OA
HETATM    3  O2N ZID A 300       0.093 -33.916   8.817  1.00 28.40    -0.624 OA
ENDROOT
BRANCH   1   4
HETATM    4  O3  ZID A 300       2.093 -33.351  10.409  1.00 30.29    -0.180 OA
BRANCH   4   5
HETATM    5  PA  ZID A 300       2.883 -34.679  10.977  1.00 28.62     0.417 P 
HETATM    6  O1A ZID A 300       1.773 -35.674  11.203  1.00 28.37    -0.624 OA
HETATM    7  O2A ZID A 300       4.097 -34.986  10.158  1.00 30.19    -0.624 OA
BRANCH   5   8
HETATM    8  O5B ZID A 300       3.473 -34.143  12.357  1.00 29.52    -0.287 OA
BRANCH   8   9
HETATM    9  C5B ZID A 300       3.271 -32.821  12.818  1.00 27.76     0.216 C 
BRANCH   9  10
HETATM   10  C4B ZID A 300       4.656 -32.225  12.710  1.00 27.48     0.180 C 
HETATM   11  O4B ZID A 300       5.604 -33.283  12.640  1.00 27.81    -0.353 OA
HETATM   12  C1B ZID A 300       6.650 -32.801  11.842  1.00 28.20     0.262 C 
HETATM   13  C2B ZID A 300       5.931 -32.106  10.678  1.00 28.50     0.198 C 
HETATM   14  C3B ZID A 300       4.832 -31.386  11.423  1.00 25.42     0.182 C 
BRANCH  12  15
HETATM   15  N9A ZID A 300       7.579 -33.804  11.326  1.00 26.08    -0.297 N 
HETATM   16  C8A ZID A 300       8.784 -33.564  10.784  1.00 24.53     0.188 A 
HETATM   17  N7A ZID A 300       9.350 -34.736  10.535  1.00 23.35    -0.346 N 
HETATM   18  C5A ZID A 300       8.520 -35.718  10.980  1.00 25.38     0.122 A 
ATOM     19  H7A ZID A 300      10.255 -34.878  10.085  1.00  0.00     0.167 HD
HETATM   20  C6A ZID A 300       8.594 -37.102  10.995  1.00 23.71     0.131 A 
HETATM   21  C4A ZID A 300       7.416 -35.109  11.497  1.00 23.66     0.142 A 
HETATM   22  N1A ZID A 300       7.556 -37.791  11.481  1.00 27.06    -0.337 N 
HETATM   23  C2A ZID A 300       6.483 -37.155  12.008  1.00 25.81     0.183 A 
ATOM     24  H1A ZID A 300       7.574 -38.810  11.455  1.00  0.00     0.168 HD
HETATM   25  N3A ZID A 300       6.406 -35.830  12.003  1.00 26.02    -0.336 N 
ATOM     26  H3A ZID A 300       5.582 -35.364  12.381  1.00  0.00     0.168 HD
BRANCH  20  27
HETATM   27  N6A ZID A 300       9.670 -37.762  10.507  1.00 26.06    -0.383 N 
ATOM     28 2H6A ZID A 300       9.543 -38.647  10.016  1.00  0.00     0.157 HD
ATOM     29 1H6A ZID A 300      10.614 -37.387  10.598  1.00  0.00     0.157 HD
ENDBRANCH  20  27
ENDBRANCH  12  15
BRANCH  13  30
HETATM   30  O2B ZID A 300       6.805 -31.209   9.974  1.00 34.28    -0.388 OA
ATOM     31  H2B ZID A 300       7.316 -30.660  10.558  1.00  0.00     0.210 HD
ENDBRANCH  13  30
BRANCH  14  32
HETATM   32  O3B ZID A 300       5.302 -30.112  11.801  1.00 26.39    -0.390 OA
ATOM     33  H3B ZID A 300       4.602 -29.671  12.268  1.00  0.00     0.210 HD
ENDBRANCH  14  32
ENDBRANCH   9  10
ENDBRANCH   8   9
ENDBRANCH   5   8
ENDBRANCH   4   5
ENDBRANCH   1   4
BRANCH   1  34
HETATM   34  O5D ZID A 300       0.496 -31.660   9.719  1.00 27.38    -0.287 OA
BRANCH  34  35
HETATM   35  C5D ZID A 300       0.986 -31.146   8.484  1.00 26.32     0.216 C 
BRANCH  35  36
HETATM   36  C4D ZID A 300       1.169 -29.631   8.615  1.00 26.54     0.180 C 
HETATM   37  O4D ZID A 300       0.171 -29.212   9.598  1.00 26.70    -0.353 OA
HETATM   38  C1D ZID A 300       0.812 -28.352  10.490  1.00 24.37     0.259 C 
HETATM   39  C2D ZID A 300       2.230 -28.948  10.591  1.00 23.83     0.198 C 
HETATM   40  C3D ZID A 300       2.565 -29.237   9.152  1.00 24.97     0.182 C 
BRANCH  38  41
HETATM   41  N1N ZID A 300       0.298 -28.271  11.837  1.00 25.28    -0.336 N 
HETATM   42  C2N ZID A 300      -0.189 -29.376  12.458  1.00 22.44     0.111 A 
HETATM   43  C3N ZID A 300      -0.588 -29.276  13.737  1.00 25.89     0.056 A 
HETATM   44  C4N ZID A 300      -0.442 -28.003  14.322  1.00 26.60    -0.007 A 
HETATM   45  C5N ZID A 300       0.147 -26.931  13.704  1.00 27.45     0.028 A 
HETATM   46  C6N ZID A 300       0.492 -27.107  12.419  1.00 24.23     0.094 A 
BRANCH  43  47
HETATM   47  C7N ZID A 300      -1.272 -30.458  14.438  1.00 28.02     0.251 C 
HETATM   48  O7N ZID A 300      -2.469 -30.407  14.776  1.00 26.84    -0.268 OA
HETATM   49  N7N ZID A 300      -0.527 -31.423  14.946  1.00 23.44    -0.366 N 
ATOM     50 2H7N ZID A 300       0.453 -31.466  14.668  1.00  0.00     0.159 HD
ATOM     51 1H7N ZID A 300      -0.982 -32.209  15.412  1.00  0.00     0.159 HD
ENDBRANCH  43  47
BRANCH  44  52
HETATM   52  C7Z ZID A 300      -0.472 -28.094  15.681  1.00 27.75     0.185 C 
BRANCH  52  53
HETATM   53  O7Z ZID A 300       1.060 -28.059  15.625  1.00 23.71    -0.386 OA
ATOM     54  H7Z ZID A 300       0.964 -27.829  14.709  1.00  0.00     0.210 HD
ENDBRANCH  52  53
BRANCH  52  55
HETATM   55  C4Z ZID A 300      -0.458 -27.062  16.733  1.00 23.40    -0.023 A 
HETATM   56  C3Z ZID A 300      -0.041 -25.777  16.482  1.00 23.67     0.027 A 
HETATM   57  C2Z ZID A 300      -0.222 -24.842  17.490  1.00 22.98     0.088 A 
HETATM   58  N1Z ZID A 300      -0.821 -25.155  18.667  1.00 25.57    -0.375 N 
HETATM   59  C6Z ZID A 300      -1.309 -26.390  18.913  1.00 26.04     0.088 A 
ATOM     60  H1Z ZID A 300      -0.904 -24.436  19.386  1.00  0.00     0.164 HD
HETATM   61  C5Z ZID A 300      -1.154 -27.354  17.942  1.00 24.83     0.027 A 
ENDBRANCH  52  55
ENDBRANCH  44  52
ENDBRANCH  38  41
BRANCH  39  62
HETATM   62  O2D ZID A 300       3.277 -28.130  11.200  1.00 23.60    -0.388 OA
ATOM     63  H2D ZID A 300       4.043 -28.660  11.385  1.00  0.00     0.210 HD
ENDBRANCH  39  62
BRANCH  40  64
HETATM   64  O3D ZID A 300       2.998 -27.975   8.556  1.00 26.13    -0.390 OA
ATOM     65  H3D ZID A 300       2.340 -27.656   7.948  1.00  0.00     0.210 HD
ENDBRANCH  40  64
ENDBRANCH  35  36
ENDBRANCH  34  35
ENDBRANCH   1  34
TORSDOF 19
ENDMDL
MODEL 2
REMARK VINA RESULT:     -10.4      2.602      4.931
REMARK  19 active torsions:
REMARK  status: ('A' for Active; 'I' for Inactive)
REMARK    1  A    between atoms: PA_1  and  O5B_4 
REMARK    2  A    between atoms: PA_1  and  O3_30 
REMARK    3  A    between atoms: O5B_4  and  C5B_5 
REMARK    4  A    between atoms: C5B_5  and  C4B_6 
REMARK    5  A    between atoms: C3B_8  and  O3B_9 
REMARK    6  A    between atoms: C2B_11  and  O2B_12 
REMARK    7  A    between atoms: C1B_14  and  N9A_15 
REMARK    8  A    between atoms: C6A_20  and  N6A_21 
REMARK    9  A    between atoms: O3_30  and  PN_31 
REMARK   10  A    between atoms: PN_31  and  O5D_34 
REMARK   11  A    between atoms: O5D_34  and  C5D_35 
REMARK   12  A    between atoms: C5D_35  and  C4D_36 
REMARK   13  A    between atoms: C3D_38  and  O3D_39 
REMARK   14  A    between atoms: C2D_41  and  O2D_42 
REMARK   15  A    between atoms: C1D_44  and  N1N_45 
REMARK   16  A    between atoms: C3N_47  and  C7N_48 
REMARK       I    between atoms: C7N_48  and  N7N_50 
REMARK   17  A    between atoms: C4N_53  and  C7Z_56 
REMARK   18  A    between atoms: C7Z_56  and  O7Z_57 
REMARK   19  A    between atoms: C7Z_56  and  C4Z_63 
ROOT
HETATM    1  PN  ZID A 300       3.906 -34.528  14.053  1.00 26.51     0.417 P 
HETATM    2  O1N ZID A 300       3.826 -33.057  14.301  1.00 30.48    -0.624 OA
HETATM    3  O2N ZID A 300       3.419 -35.534  15.057  1.00 28.40    -0.624 OA
ENDROOT
BRANCH   1   4
HETATM    4  O3  ZID A 300       5.451 -34.782  13.588  1.00 30.29    -0.180 OA
BRANCH   4   5
HETATM    5  PA  ZID A 300       6.335 -36.161  13.753  1.00 28.62     0.417 P 
HETATM    6  O1A ZID A 300       7.133 -35.916  15.009  1.00 28.37    -0.624 OA
HETATM    7  O2A ZID A 300       5.490 -37.380  13.550  1.00 30.19    -0.624 OA
BRANCH   5   8
HETATM    8  O5B ZID A 300       7.261 -36.113  12.457  1.00 29.52    -0.287 OA
BRANCH   8   9
HETATM    9  C5B ZID A 300       6.804 -36.489  11.172  1.00 27.76     0.216 C 
BRANCH   9  10
HETATM   10  C4B ZID A 300       7.250 -35.325  10.316  1.00 27.48     0.180 C 
HETATM   11  O4B ZID A 300       6.237 -34.328  10.338  1.00 27.81    -0.353 OA
HETATM   12  C1B ZID A 300       6.908 -33.103  10.224  1.00 28.20     0.262 C 
HETATM   13  C2B ZID A 300       8.101 -33.252  11.178  1.00 28.50     0.198 C 
HETATM   14  C3B ZID A 300       8.537 -34.661  10.859  1.00 25.42     0.182 C 
BRANCH  12  15
HETATM   15  N9A ZID A 300       6.136 -31.913  10.573  1.00 26.08    -0.297 N 
HETATM   16  C8A ZID A 300       5.529 -31.678  11.747  1.00 24.53     0.188 A 
HETATM   17  N7A ZID A 300       5.025 -30.453  11.698  1.00 23.35    -0.346 N 
HETATM   18  C5A ZID A 300       5.372 -29.893  10.508  1.00 25.38     0.122 A 
ATOM     19  H7A ZID A 300       4.471 -30.007  12.429  1.00  0.00     0.167 HD
HETATM   20  C6A ZID A 300       5.138 -28.657   9.926  1.00 23.71     0.131 A 
HETATM   21  C4A ZID A 300       6.093 -30.823   9.820  1.00 23.66     0.142 A 
HETATM   22  N1A ZID A 300       5.597 -28.438   8.689  1.00 27.06    -0.337 N 
HETATM   23  C2A ZID A 300       6.329 -29.373   8.041  1.00 25.81     0.183 A 
ATOM     24  H1A ZID A 300       5.392 -27.551   8.228  1.00  0.00     0.168 HD
HETATM   25  N3A ZID A 300       6.562 -30.558   8.592  1.00 26.02    -0.336 N 
ATOM     26  H3A ZID A 300       7.096 -31.264   8.084  1.00  0.00     0.168 HD
BRANCH  20  27
HETATM   27  N6A ZID A 300       4.440 -27.691  10.566  1.00 26.06    -0.383 N 
ATOM     28 2H6A ZID A 300       4.322 -26.776  10.129  1.00  0.00     0.157 HD
ATOM     29 1H6A ZID A 300       4.003 -27.857  11.472  1.00  0.00     0.157 HD
ENDBRANCH  20  27
ENDBRANCH  12  15
BRANCH  13  30
HETATM   30  O2B ZID A 300       9.122 -32.279  10.906  1.00 34.28    -0.388 OA
ATOM     31  H2B ZID A 300       9.962 -32.511  11.285  1.00  0.00     0.210 HD
ENDBRANCH  13  30
BRANCH  14  32
HETATM   32  O3B ZID A 300       9.475 -34.617   9.807  1.00 26.39    -0.390 OA
ATOM     33  H3B ZID A 300       9.947 -33.795   9.873  1.00  0.00     0.210 HD
ENDBRANCH  14  32
ENDBRANCH   9  10
ENDBRANCH   8   9
ENDBRANCH   5   8
ENDBRANCH   4   5
ENDBRANCH   1   4
BRANCH   1  34
HETATM   34  O5D ZID A 300       3.203 -34.913  12.684  1.00 27.38    -0.287 OA
BRANCH  34  35
HETATM   35  C5D ZID A 300       1.853 -35.356  12.600  1.00 26.32     0.216 C 
BRANCH  35  36
HETATM   36  C4D ZID A 300       1.115 -34.508  11.561  1.00 26.54     0.180 C 
HETATM   37  O4D ZID A 300       0.200 -33.671  12.335  1.00 26.70    -0.353 OA
HETATM   38  C1D ZID A 300       0.313 -32.372  11.836  1.00 24.37     0.259 C 
HETATM   39  C2D ZID A 300       1.806 -32.270  11.468  1.00 23.83     0.198 C 
HETATM   40  C3D ZID A 300       2.059 -33.576  10.764  1.00 24.97     0.182 C 
BRANCH  38  41
HETATM   41  N1N ZID A 300       0.029 -31.278  12.734  1.00 25.28    -0.336 N 
HETATM   42  C2N ZID A 300      -0.495 -30.116  12.263  1.00 22.44     0.111 A 
HETATM   43  C3N ZID A 300      -0.816 -29.151  13.139  1.00 25.89     0.056 A 
HETATM   44  C4N ZID A 300      -0.583 -29.455  14.495  1.00 26.60    -0.007 A 
HETATM   45  C5N ZID A 300      -0.148 -30.673  14.949  1.00 27.45     0.028 A 
HETATM   46  C6N ZID A 300       0.176 -31.573  14.008  1.00 24.23     0.094 A 
BRANCH  43  47
HETATM   47  C7N ZID A 300      -1.282 -27.772  12.649  1.00 28.02     0.251 C 
HETATM   48  O7N ZID A 300      -2.405 -27.612  12.134  1.00 26.84    -0.268 OA
HETATM   49  N7N ZID A 300      -0.392 -26.807  12.504  1.00 23.44    -0.366 N 
ATOM     50 2H7N ZID A 300       0.527 -26.938  12.925  1.00  0.00     0.159 HD
ATOM     51 1H7N ZID A 300      -0.702 -25.891  12.177  1.00  0.00     0.159 HD
ENDBRANCH  43  47
BRANCH  44  52
HETATM   52  C7Z ZID A 300      -1.299 -28.625  15.304  1.00 27.75     0.185 C 
BRANCH  52  53
HETATM   53  O7Z ZID A 300      -1.449 -29.824  16.247  1.00 23.71    -0.386 OA
ATOM     54  H7Z ZID A 300      -2.374 -29.611  16.278  1.00  0.00     0.210 HD
ENDBRANCH  52  53
BRANCH  52  55
HETATM   55  C4Z ZID A 300      -0.899 -27.779  16.441  1.00 23.40    -0.023 A 
HETATM   56  C3Z ZID A 300      -0.260 -26.576  16.261  1.00 23.67     0.027 A 
HETATM   57  C2Z ZID A 300      -0.076 -25.780  17.381  1.00 22.98     0.088 A 
HETATM   58  N1Z ZID A 300      -0.536 -26.139  18.606  1.00 25.57    -0.375 N 
HETATM   59  C6Z ZID A 300      -1.234 -27.280  18.802  1.00 26.04     0.088 A 
ATOM     60  H1Z ZID A 300      -0.349 -25.530  19.403  1.00  0.00     0.164 HD
HETATM   61  C5Z ZID A 300      -1.443 -28.104  17.719  1.00 24.83     0.027 A 
ENDBRANCH  52  55
ENDBRANCH  44  52
ENDBRANCH  38  41
BRANCH  39  62
HETATM   62  O2D ZID A 300       2.230 -31.151  10.628  1.00 23.60    -0.388 OA
ATOM     63  H2D ZID A 300       2.416 -30.389  11.163  1.00  0.00     0.210 HD
ENDBRANCH  39  62
BRANCH  40  64
HETATM   64  O3D ZID A 300       1.577 -33.420   9.393  1.00 26.13    -0.390 OA
ATOM     65  H3D ZID A 300       2.158 -33.867   8.788  1.00  0.00     0.210 HD
ENDBRANCH  40  64
ENDBRANCH  35  36
ENDBRANCH  34  35
ENDBRANCH   1  34
TORSDOF 19
ENDMDL
MODEL 3
REMARK VINA RESULT:     -10.4      2.593      9.353
REMARK  19 active torsions:
REMARK  status: ('A' for Active; 'I' for Inactive)
REMARK    1  A    between atoms: PA_1  and  O5B_4 
REMARK    2  A    between atoms: PA_1  and  O3_30 
REMARK    3  A    between atoms: O5B_4  and  C5B_5 
REMARK    4  A    between atoms: C5B_5  and  C4B_6 
REMARK    5  A    between atoms: C3B_8  and  O3B_9 
REMARK    6  A    between atoms: C2B_11  and  O2B_12 
REMARK    7  A    between atoms: C1B_14  and  N9A_15 
REMARK    8  A    between atoms: C6A_20  and  N6A_21 
REMARK    9  A    between atoms: O3_30  and  PN_31 
REMARK   10  A    between atoms: PN_31  and  O5D_34 
REMARK   11  A    between atoms: O5D_34  and  C5D_35 
REMARK   12  A    between atoms: C5D_35  and  C4D_36 
REMARK   13  A    between atoms: C3D_38  and  O3D_39 
REMARK   14  A    between atoms: C2D_41  and  O2D_42 
REMARK   15  A    between atoms: C1D_44  and  N1N_45 
REMARK   16  A    between atoms: C3N_47  and  C7N_48 
REMARK       I    between atoms: C7N_48  and  N7N_50 
REMARK   17  A    between atoms: C4N_53  and  C7Z_56 
REMARK   18  A    between atoms: C7Z_56  and  O7Z_57 
REMARK   19  A    between atoms: C7Z_56  and  C4Z_63 
ROOT
HETATM    1  PN  ZID A 300       1.597 -35.450  12.343  1.00 26.51     0.417 P 
HETATM    2  O1N ZID A 300       1.837 -35.880  10.932  1.00 30.48    -0.624 OA
HETATM    3  O2N ZID A 300       0.453 -35.984  13.157  1.00 28.40    -0.624 OA
ENDROOT
BRANCH   1   4
HETATM    4  O3  ZID A 300       1.637 -33.818  12.286  1.00 30.29    -0.180 OA
BRANCH   4   5
HETATM    5  PA  ZID A 300       0.668 -32.820  11.406  1.00 28.62     0.417 P 
HETATM    6  O1A ZID A 300       1.311 -32.824  10.042  1.00 28.37    -0.624 OA
HETATM    7  O2A ZID A 300      -0.780 -33.131  11.624  1.00 30.19    -0.624 OA
BRANCH   5   8
HETATM    8  O5B ZID A 300       0.878 -31.425  12.144  1.00 29.52    -0.287 OA
BRANCH   8   9
HETATM    9  C5B ZID A 300       1.488 -31.311  13.416  1.00 27.76     0.216 C 
BRANCH   9  10
HETATM   10  C4B ZID A 300       0.345 -30.834  14.282  1.00 27.48     0.180 C 
HETATM   11  O4B ZID A 300       0.792 -29.733  15.063  1.00 27.81    -0.353 OA
HETATM   12  C1B ZID A 300      -0.328 -28.909  15.233  1.00 28.20     0.262 C 
HETATM   13  C2B ZID A 300      -0.970 -28.873  13.840  1.00 28.50     0.198 C 
HETATM   14  C3B ZID A 300      -0.850 -30.325  13.443  1.00 25.42     0.182 C 
BRANCH  12  15
HETATM   15  N9A ZID A 300      -0.061 -27.548  15.694  1.00 26.08    -0.297 N 
HETATM   16  C8A ZID A 300       0.547 -26.580  14.991  1.00 24.53     0.188 A 
HETATM   17  N7A ZID A 300       0.506 -25.473  15.719  1.00 23.35    -0.346 N 
HETATM   18  C5A ZID A 300      -0.187 -25.735  16.861  1.00 25.38     0.122 A 
ATOM     19  H7A ZID A 300       0.924 -24.577  15.467  1.00  0.00     0.167 HD
HETATM   20  C6A ZID A 300      -0.545 -24.971  17.961  1.00 23.71     0.131 A 
HETATM   21  C4A ZID A 300      -0.556 -27.046  16.816  1.00 23.66     0.142 A 
HETATM   22  N1A ZID A 300      -1.209 -25.564  18.959  1.00 27.06    -0.337 N 
HETATM   23  C2A ZID A 300      -1.581 -26.863  18.874  1.00 25.81     0.183 A 
ATOM     24  H1A ZID A 300      -1.438 -25.029  19.796  1.00  0.00     0.168 HD
HETATM   25  N3A ZID A 300      -1.246 -27.600  17.823  1.00 26.02    -0.336 N 
ATOM     26  H3A ZID A 300      -1.512 -28.584  17.781  1.00  0.00     0.168 HD
BRANCH  20  27
HETATM   27  N6A ZID A 300      -0.217 -23.662  18.055  1.00 26.06    -0.383 N 
ATOM     28 2H6A ZID A 300       0.712 -23.395  18.382  1.00  0.00     0.157 HD
ATOM     29 1H6A ZID A 300      -0.870 -22.926  17.787  1.00  0.00     0.157 HD
ENDBRANCH  20  27
ENDBRANCH  12  15
BRANCH  13  30
HETATM   30  O2B ZID A 300      -2.332 -28.422  13.895  1.00 34.28    -0.388 OA
ATOM     31  H2B ZID A 300      -2.526 -27.758  13.243  1.00  0.00     0.210 HD
ENDBRANCH  13  30
BRANCH  14  32
HETATM   32  O3B ZID A 300      -2.004 -31.009  13.879  1.00 26.39    -0.390 OA
ATOM     33  H3B ZID A 300      -2.757 -30.595  13.474  1.00  0.00     0.210 HD
ENDBRANCH  14  32
ENDBRANCH   9  10
ENDBRANCH   8   9
ENDBRANCH   5   8
ENDBRANCH   4   5
ENDBRANCH   1   4
BRANCH   1  34
HETATM   34  O5D ZID A 300       2.894 -35.666  13.231  1.00 27.38    -0.287 OA
BRANCH  34  35
HETATM   35  C5D ZID A 300       3.605 -34.594  13.843  1.00 26.32     0.216 C 
BRANCH  35  36
HETATM   36  C4D ZID A 300       4.988 -34.482  13.198  1.00 26.54     0.180 C 
HETATM   37  O4D ZID A 300       4.751 -33.857  11.898  1.00 26.70    -0.353 OA
HETATM   38  C1D ZID A 300       5.709 -32.854  11.746  1.00 24.37     0.259 C 
HETATM   39  C2D ZID A 300       5.878 -32.313  13.179  1.00 23.83     0.198 C 
HETATM   40  C3D ZID A 300       5.954 -33.575  13.997  1.00 24.97     0.182 C 
BRANCH  38  41
HETATM   41  N1N ZID A 300       5.376 -31.724  10.911  1.00 25.28    -0.336 N 
HETATM   42  C2N ZID A 300       4.177 -31.098  11.041  1.00 22.44     0.111 A 
HETATM   43  C3N ZID A 300       3.935 -30.005  10.300  1.00 25.89     0.056 A 
HETATM   44  C4N ZID A 300       4.983 -29.601   9.450  1.00 26.60    -0.007 A 
HETATM   45  C5N ZID A 300       6.219 -30.191   9.413  1.00 27.45     0.028 A 
HETATM   46  C6N ZID A 300       6.370 -31.293  10.164  1.00 24.23     0.094 A 
BRANCH  43  47
HETATM   47  C7N ZID A 300       2.549 -29.344  10.309  1.00 28.02     0.251 C 
HETATM   48  O7N ZID A 300       1.855 -29.278   9.277  1.00 26.84    -0.268 OA
HETATM   49  N7N ZID A 300       2.204 -28.587  11.335  1.00 23.44    -0.366 N 
ATOM     50 2H7N ZID A 300       2.772 -28.642  12.181  1.00  0.00     0.159 HD
ATOM     51 1H7N ZID A 300       1.283 -28.148  11.341  1.00  0.00     0.159 HD
ENDBRANCH  43  47
BRANCH  44  52
HETATM   52  C7Z ZID A 300       4.820 -28.302   9.070  1.00 27.75     0.185 C 
BRANCH  52  53
HETATM   53  O7Z ZID A 300       6.076 -27.999   9.895  1.00 23.71    -0.386 OA
ATOM     54  H7Z ZID A 300       6.565 -28.120   9.089  1.00  0.00     0.210 HD
ENDBRANCH  52  53
BRANCH  52  55
HETATM   55  C4Z ZID A 300       5.374 -27.534   7.942  1.00 23.40    -0.023 A 
HETATM   56  C3Z ZID A 300       4.621 -27.227   6.834  1.00 23.67     0.027 A 
HETATM   57  C2Z ZID A 300       5.180 -26.361   5.906  1.00 22.98     0.088 A 
HETATM   58  N1Z ZID A 300       6.401 -25.798   6.087  1.00 25.57    -0.375 N 
HETATM   59  C6Z ZID A 300       7.133 -26.020   7.201  1.00 26.04     0.088 A 
ATOM     60  H1Z ZID A 300       6.778 -25.189   5.360  1.00  0.00     0.164 HD
HETATM   61  C5Z ZID A 300       6.620 -26.873   8.153  1.00 24.83     0.027 A 
ENDBRANCH  52  55
ENDBRANCH  44  52
ENDBRANCH  38  41
BRANCH  39  62
HETATM   62  O2D ZID A 300       7.029 -31.458  13.458  1.00 23.60    -0.388 OA
ATOM     63  H2D ZID A 300       7.627 -31.894  14.053  1.00  0.00     0.210 HD
ENDBRANCH  39  62
BRANCH  40  64
HETATM   64  O3D ZID A 300       7.324 -34.071  13.884  1.00 26.13    -0.390 OA
ATOM     65  H3D ZID A 300       7.332 -35.021  13.909  1.00  0.00     0.210 HD
ENDBRANCH  40  64
ENDBRANCH  35  36
ENDBRANCH  34  35
ENDBRANCH   1  34
TORSDOF 19
ENDMDL
MODEL 4
REMARK VINA RESULT:     -10.3      2.600      4.737
REMARK  19 active torsions:
REMARK  status: ('A' for Active; 'I' for Inactive)
REMARK    1  A    between atoms: PA_1  and  O5B_4 
REMARK    2  A    between atoms: PA_1  and  O3_30 
REMARK    3  A    between atoms: O5B_4  and  C5B_5 
REMARK    4  A    between atoms: C5B_5  and  C4B_6 
REMARK    5  A    between atoms: C3B_8  and  O3B_9 
REMARK    6  A    between atoms: C2B_11  and  O2B_12 
REMARK    7  A    between atoms: C1B_14  and  N9A_15 
REMARK    8  A    between atoms: C6A_20  and  N6A_21 
REMARK    9  A    between atoms: O3_30  and  PN_31 
REMARK   10  A    between atoms: PN_31  and  O5D_34 
REMARK   11  A    between atoms: O5D_34  and  C5D_35 
REMARK   12  A    between atoms: C5D_35  and  C4D_36 
REMARK   13  A    between atoms: C3D_38  and  O3D_39 
REMARK   14  A    between atoms: C2D_41  and  O2D_42 
REMARK   15  A    between atoms: C1D_44  and  N1N_45 
REMARK   16  A    between atoms: C3N_47  and  C7N_48 
REMARK       I    between atoms: C7N_48  and  N7N_50 
REMARK   17  A    between atoms: C4N_53  and  C7Z_56 
REMARK   18  A    between atoms: C7Z_56  and  O7Z_57 
REMARK   19  A    between atoms: C7Z_56  and  C4Z_63 
ROOT
HETATM    1  PN  ZID A 300       4.198 -34.106  14.277  1.00 26.51     0.417 P 
HETATM    2  O1N ZID A 300       4.487 -32.698  13.869  1.00 30.48    -0.624 OA
HETATM    3  O2N ZID A 300       4.110 -34.518  15.719  1.00 28.40    -0.624 OA
ENDROOT
BRANCH   1   4
HETATM    4  O3  ZID A 300       5.254 -35.007  13.416  1.00 30.29    -0.180 OA
BRANCH   4   5
HETATM    5  PA  ZID A 300       5.952 -36.432  13.858  1.00 28.62     0.417 P 
HETATM    6  O1A ZID A 300       6.904 -36.027  14.956  1.00 28.37    -0.624 OA
HETATM    7  O2A ZID A 300       4.931 -37.513  14.023  1.00 30.19    -0.624 OA
BRANCH   5   8
HETATM    8  O5B ZID A 300       6.734 -36.839  12.532  1.00 29.52    -0.287 OA
BRANCH   8   9
HETATM    9  C5B ZID A 300       6.127 -37.544  11.466  1.00 27.76     0.216 C 
BRANCH   9  10
HETATM   10  C4B ZID A 300       6.406 -36.648  10.282  1.00 27.48     0.180 C 
HETATM   11  O4B ZID A 300       6.212 -35.295  10.677  1.00 27.81    -0.353 OA
HETATM   12  C1B ZID A 300       7.123 -34.546   9.922  1.00 28.20     0.262 C 
HETATM   13  C2B ZID A 300       8.417 -35.367   9.990  1.00 28.50     0.198 C 
HETATM   14  C3B ZID A 300       7.870 -36.761   9.797  1.00 25.42     0.182 C 
BRANCH  12  15
HETATM   15  N9A ZID A 300       7.373 -33.182  10.385  1.00 26.08    -0.297 N 
HETATM   16  C8A ZID A 300       8.556 -32.548  10.377  1.00 24.53     0.188 A 
HETATM   17  N7A ZID A 300       8.344 -31.304  10.781  1.00 23.35    -0.346 N 
HETATM   18  C5A ZID A 300       7.009 -31.139  10.985  1.00 25.38     0.122 A 
ATOM     19  H7A ZID A 300       9.060 -30.590  10.917  1.00  0.00     0.167 HD
HETATM   20  C6A ZID A 300       6.225 -30.071  11.392  1.00 23.71     0.131 A 
HETATM   21  C4A ZID A 300       6.409 -32.332  10.707  1.00 23.66     0.142 A 
HETATM   22  N1A ZID A 300       4.910 -30.262  11.536  1.00 27.06    -0.337 N 
HETATM   23  C2A ZID A 300       4.342 -31.452  11.230  1.00 25.81     0.183 A 
ATOM     24  H1A ZID A 300       4.326 -29.500  11.880  1.00  0.00     0.168 HD
HETATM   25  N3A ZID A 300       5.083 -32.480  10.836  1.00 26.02    -0.336 N 
ATOM     26  H3A ZID A 300       4.646 -33.379  10.631  1.00  0.00     0.168 HD
BRANCH  20  27
HETATM   27  N6A ZID A 300       6.763 -28.860  11.669  1.00 26.06    -0.383 N 
ATOM     28 2H6A ZID A 300       6.734 -28.499  12.622  1.00  0.00     0.157 HD
ATOM     29 1H6A ZID A 300       7.221 -28.300  10.950  1.00  0.00     0.157 HD
ENDBRANCH  20  27
ENDBRANCH  12  15
BRANCH  13  30
HETATM   30  O2B ZID A 300       9.343 -34.985   8.961  1.00 34.28    -0.388 OA
ATOM     31  H2B ZID A 300       8.951 -34.420   8.305  1.00  0.00     0.210 HD
ENDBRANCH  13  30
BRANCH  14  32
HETATM   32  O3B ZID A 300       7.844 -37.049   8.416  1.00 26.39    -0.390 OA
ATOM     33  H3B ZID A 300       8.696 -37.394   8.176  1.00  0.00     0.210 HD
ENDBRANCH  14  32
ENDBRANCH   9  10
ENDBRANCH   8   9
ENDBRANCH   5   8
ENDBRANCH   4   5
ENDBRANCH   1   4
BRANCH   1  34
HETATM   34  O5D ZID A 300       2.864 -34.632  13.597  1.00 27.38    -0.287 OA
BRANCH  34  35
HETATM   35  C5D ZID A 300       2.807 -35.095  12.251  1.00 26.32     0.216 C 
BRANCH  35  36
HETATM   36  C4D ZID A 300       1.409 -34.819  11.691  1.00 26.54     0.180 C 
HETATM   37  O4D ZID A 300       0.727 -34.052  12.732  1.00 26.70    -0.353 OA
HETATM   38  C1D ZID A 300       0.093 -32.981  12.102  1.00 24.37     0.259 C 
HETATM   39  C2D ZID A 300       1.072 -32.614  10.969  1.00 23.83     0.198 C 
HETATM   40  C3D ZID A 300       1.436 -33.960  10.403  1.00 24.97     0.182 C 
BRANCH  38  41
HETATM   41  N1N ZID A 300      -0.124 -31.778  12.871  1.00 25.28    -0.336 N 
HETATM   42  C2N ZID A 300      -1.384 -31.371  13.175  1.00 22.44     0.111 A 
HETATM   43  C3N ZID A 300      -1.543 -30.291  13.956  1.00 25.89     0.056 A 
HETATM   44  C4N ZID A 300      -0.355 -29.682  14.403  1.00 26.60    -0.007 A 
HETATM   45  C5N ZID A 300       0.902 -30.174  14.165  1.00 27.45     0.028 A 
HETATM   46  C6N ZID A 300       0.975 -31.240  13.354  1.00 24.23     0.094 A 
BRANCH  43  47
HETATM   47  C7N ZID A 300      -2.942 -29.711  14.214  1.00 28.02     0.251 C 
HETATM   48  O7N ZID A 300      -3.243 -28.558  13.852  1.00 26.84    -0.268 OA
HETATM   49  N7N ZID A 300      -3.741 -30.317  15.073  1.00 23.44    -0.366 N 
ATOM     50 2H7N ZID A 300      -3.494 -31.261  15.370  1.00  0.00     0.159 HD
ATOM     51 1H7N ZID A 300      -4.669 -29.932  15.245  1.00  0.00     0.159 HD
ENDBRANCH  43  47
BRANCH  44  52
HETATM   52  C7Z ZID A 300      -0.599 -28.888  15.484  1.00 27.75     0.185 C 
BRANCH  52  53
HETATM   53  O7Z ZID A 300       0.847 -29.176  15.906  1.00 23.71    -0.386 OA
ATOM     54  H7Z ZID A 300       0.486 -29.469  16.734  1.00  0.00     0.210 HD
ENDBRANCH  52  53
BRANCH  52  55
HETATM   55  C4Z ZID A 300      -0.380 -27.450  15.712  1.00 23.40    -0.023 A 
HETATM   56  C3Z ZID A 300      -0.534 -26.881  16.954  1.00 23.67     0.027 A 
HETATM   57  C2Z ZID A 300      -0.144 -25.558  17.100  1.00 22.98     0.088 A 
HETATM   58  N1Z ZID A 300       0.407 -24.850  16.082  1.00 25.57    -0.375 N 
HETATM   59  C6Z ZID A 300       0.641 -25.404  14.871  1.00 26.04     0.088 A 
ATOM     60  H1Z ZID A 300       0.651 -23.872  16.234  1.00  0.00     0.164 HD
HETATM   61  C5Z ZID A 300       0.271 -26.716  14.677  1.00 24.83     0.027 A 
ENDBRANCH  52  55
ENDBRANCH  44  52
ENDBRANCH  38  41
BRANCH  39  62
HETATM   62  O2D ZID A 300       0.592 -31.731   9.907  1.00 23.60    -0.388 OA
ATOM     63  H2D ZID A 300       0.086 -31.017  10.276  1.00  0.00     0.210 HD
ENDBRANCH  39  62
BRANCH  40  64
HETATM   64  O3D ZID A 300       0.348 -34.354   9.511  1.00 26.13    -0.390 OA
ATOM     65  H3D ZID A 300       0.049 -33.605   9.008  1.00  0.00     0.210 HD
ENDBRANCH  40  64
ENDBRANCH  35  36
ENDBRANCH  34  35
ENDBRANCH   1  34
TORSDOF 19
ENDMDL
MODEL 5
REMARK VINA RESULT:     -10.2      1.613      2.191
REMARK  19 active torsions:
REMARK  status: ('A' for Active; 'I' for Inactive)
REMARK    1  A    between atoms: PA_1  and  O5B_4 
REMARK    2  A    between atoms: PA_1  and  O3_30 
REMARK    3  A    between atoms: O5B_4  and  C5B_5 
REMARK    4  A    between atoms: C5B_5  and  C4B_6 
REMARK    5  A    between atoms: C3B_8  and  O3B_9 
REMARK    6  A    between atoms: C2B_11  and  O2B_12 
REMARK    7  A    between atoms: C1B_14  and  N9A_15 
REMARK    8  A    between atoms: C6A_20  and  N6A_21 
REMARK    9  A    between atoms: O3_30  and  PN_31 
REMARK   10  A    between atoms: PN_31  and  O5D_34 
REMARK   11  A    between atoms: O5D_34  and  C5D_35 
REMARK   12  A    between atoms: C5D_35  and  C4D_36 
REMARK   13  A    between atoms: C3D_38  and  O3D_39 
REMARK   14  A    between atoms: C2D_41  and  O2D_42 
REMARK   15  A    between atoms: C1D_44  and  N1N_45 
REMARK   16  A    between atoms: C3N_47  and  C7N_48 
REMARK       I    between atoms: C7N_48  and  N7N_50 
REMARK   17  A    between atoms: C4N_53  and  C7Z_56 
REMARK   18  A    between atoms: C7Z_56  and  O7Z_57 
REMARK   19  A    between atoms: C7Z_56  and  C4Z_63 
ROOT
HETATM    1  PN  ZID A 300       0.275 -33.335   9.792  1.00 26.51     0.417 P 
HETATM    2  O1N ZID A 300      -0.228 -33.548  11.183  1.00 30.48    -0.624 OA
HETATM    3  O2N ZID A 300      -0.470 -33.836   8.588  1.00 28.40    -0.624 OA
ENDROOT
BRANCH   1   4
HETATM    4  O3  ZID A 300       1.830 -33.834   9.838  1.00 30.29    -0.180 OA
BRANCH   4   5
HETATM    5  PA  ZID A 300       2.953 -33.517  11.000  1.00 28.62     0.417 P 
HETATM    6  O1A ZID A 300       4.242 -33.425  10.223  1.00 28.37    -0.624 OA
HETATM    7  O2A ZID A 300       2.486 -32.444  11.934  1.00 30.19    -0.624 OA
BRANCH   5   8
HETATM    8  O5B ZID A 300       2.898 -34.845  11.879  1.00 29.52    -0.287 OA
BRANCH   8   9
HETATM    9  C5B ZID A 300       2.277 -34.901  13.149  1.00 27.76     0.216 C 
BRANCH   9  10
HETATM   10  C4B ZID A 300       3.445 -35.173  14.069  1.00 27.48     0.180 C 
HETATM   11  O4B ZID A 300       4.381 -35.999  13.387  1.00 27.81    -0.353 OA
HETATM   12  C1B ZID A 300       5.640 -35.630  13.877  1.00 28.20     0.262 C 
HETATM   13  C2B ZID A 300       5.586 -34.096  13.904  1.00 28.50     0.198 C 
HETATM   14  C3B ZID A 300       4.198 -33.879  14.456  1.00 25.42     0.182 C 
BRANCH  12  15
HETATM   15  N9A ZID A 300       6.791 -36.074  13.093  1.00 26.08    -0.297 N 
HETATM   16  C8A ZID A 300       7.966 -36.499  13.583  1.00 24.53     0.188 A 
HETATM   17  N7A ZID A 300       8.703 -36.903  12.558  1.00 23.35    -0.346 N 
HETATM   18  C5A ZID A 300       7.960 -36.788  11.423  1.00 25.38     0.122 A 
ATOM     19  H7A ZID A 300       9.663 -37.243  12.610  1.00  0.00     0.167 HD
HETATM   20  C6A ZID A 300       8.202 -37.066  10.087  1.00 23.71     0.131 A 
HETATM   21  C4A ZID A 300       6.747 -36.283  11.785  1.00 23.66     0.142 A 
HETATM   22  N1A ZID A 300       7.246 -36.789   9.195  1.00 27.06    -0.337 N 
HETATM   23  C2A ZID A 300       6.043 -36.309   9.589  1.00 25.81     0.183 A 
ATOM     24  H1A ZID A 300       7.425 -36.943   8.203  1.00  0.00     0.168 HD
HETATM   25  N3A ZID A 300       5.800 -36.045  10.867  1.00 26.02    -0.336 N 
ATOM     26  H3A ZID A 300       4.898 -35.661  11.148  1.00  0.00     0.168 HD
BRANCH  20  27
HETATM   27  N6A ZID A 300       9.382 -37.579   9.670  1.00 26.06    -0.383 N 
ATOM     28 2H6A ZID A 300      10.257 -37.142   9.961  1.00  0.00     0.157 HD
ATOM     29 1H6A ZID A 300       9.427 -38.413   9.084  1.00  0.00     0.157 HD
ENDBRANCH  20  27
ENDBRANCH  12  15
BRANCH  13  30
HETATM   30  O2B ZID A 300       6.611 -33.544  14.744  1.00 34.28    -0.388 OA
ATOM     31  H2B ZID A 300       6.264 -32.987  15.432  1.00  0.00     0.210 HD
ENDBRANCH  13  30
BRANCH  14  32
HETATM   32  O3B ZID A 300       4.274 -33.830  15.864  1.00 26.39    -0.390 OA
ATOM     33  H3B ZID A 300       5.140 -34.125  16.118  1.00  0.00     0.210 HD
ENDBRANCH  14  32
ENDBRANCH   9  10
ENDBRANCH   8   9
ENDBRANCH   5   8
ENDBRANCH   4   5
ENDBRANCH   1   4
BRANCH   1  34
HETATM   34  O5D ZID A 300       0.552 -31.797   9.518  1.00 27.38    -0.287 OA
BRANCH  34  35
HETATM   35  C5D ZID A 300       0.503 -31.218   8.218  1.00 26.32     0.216 C 
BRANCH  35  36
HETATM   36  C4D ZID A 300       0.607 -29.696   8.348  1.00 26.54     0.180 C 
HETATM   37  O4D ZID A 300      -0.252 -29.352   9.480  1.00 26.70    -0.353 OA
HETATM   38  C1D ZID A 300       0.463 -28.461  10.280  1.00 24.37     0.259 C 
HETATM   39  C2D ZID A 300       1.914 -28.963  10.151  1.00 23.83     0.198 C 
HETATM   40  C3D ZID A 300       2.042 -29.216   8.673  1.00 24.97     0.182 C 
BRANCH  38  41
HETATM   41  N1N ZID A 300       0.158 -28.426  11.691  1.00 25.28    -0.336 N 
HETATM   42  C2N ZID A 300       0.208 -29.561  12.437  1.00 22.44     0.111 A 
HETATM   43  C3N ZID A 300      -0.008 -29.474  13.759  1.00 25.89     0.056 A 
HETATM   44  C4N ZID A 300      -0.257 -28.179  14.253  1.00 26.60    -0.007 A 
HETATM   45  C5N ZID A 300      -0.200 -27.039  13.494  1.00 27.45     0.028 A 
HETATM   46  C6N ZID A 300      -0.006 -27.215  12.178  1.00 24.23     0.094 A 
BRANCH  43  47
HETATM   47  C7N ZID A 300      -0.099 -30.742  14.622  1.00 28.02     0.251 C 
HETATM   48  O7N ZID A 300      -0.610 -30.718  15.757  1.00 26.84    -0.268 OA
HETATM   49  N7N ZID A 300       0.619 -31.799  14.289  1.00 23.44    -0.366 N 
ATOM     50 2H7N ZID A 300       1.037 -31.819  13.359  1.00  0.00     0.159 HD
ATOM     51 1H7N ZID A 300       0.558 -32.641  14.862  1.00  0.00     0.159 HD
ENDBRANCH  43  47
BRANCH  44  52
HETATM   52  C7Z ZID A 300      -0.052 -28.131  15.599  1.00 27.75     0.185 C 
BRANCH  52  53
HETATM   53  O7Z ZID A 300       1.155 -27.237  15.291  1.00 23.71    -0.386 OA
ATOM     54  H7Z ZID A 300       1.694 -27.986  15.511  1.00  0.00     0.210 HD
ENDBRANCH  52  53
BRANCH  52  55
HETATM   55  C4Z ZID A 300      -0.499 -27.173  16.625  1.00 23.40    -0.023 A 
HETATM   56  C3Z ZID A 300      -1.133 -27.584  17.773  1.00 23.67     0.027 A 
HETATM   57  C2Z ZID A 300      -1.364 -26.626  18.750  1.00 22.98     0.088 A 
HETATM   58  N1Z ZID A 300      -0.953 -25.340  18.612  1.00 25.57    -0.375 N 
HETATM   59  C6Z ZID A 300      -0.260 -24.924  17.529  1.00 26.04     0.088 A 
ATOM     60  H1Z ZID A 300      -1.173 -24.669  19.348  1.00  0.00     0.164 HD
HETATM   61  C5Z ZID A 300      -0.006 -25.839  16.531  1.00 24.83     0.027 A 
ENDBRANCH  52  55
ENDBRANCH  44  52
ENDBRANCH  38  41
BRANCH  39  62
HETATM   62  O2D ZID A 300       2.988 -28.084  10.610  1.00 23.60    -0.388 OA
ATOM     63  H2D ZID A 300       3.743 -28.160  10.038  1.00  0.00     0.210 HD
ENDBRANCH  39  62
BRANCH  40  64
HETATM   64  O3D ZID A 300       2.297 -27.922   8.042  1.00 26.13    -0.390 OA
ATOM     65  H3D ZID A 300       1.556 -27.668   7.504  1.00  0.00     0.210 HD
ENDBRANCH  40  64
ENDBRANCH  35  36
ENDBRANCH  34  35
ENDBRANCH   1  34
TORSDOF 19
ENDMDL
MODEL 6
REMARK VINA RESULT:     -10.0      2.719      4.524
REMARK  19 active torsions:
REMARK  status: ('A' for Active; 'I' for Inactive)
REMARK    1  A    between atoms: PA_1  and  O5B_4 
REMARK    2  A    between atoms: PA_1  and  O3_30 
REMARK    3  A    between atoms: O5B_4  and  C5B_5 
REMARK    4  A    between atoms: C5B_5  and  C4B_6 
REMARK    5  A    between atoms: C3B_8  and  O3B_9 
REMARK    6  A    between atoms: C2B_11  and  O2B_12 
REMARK    7  A    between atoms: C1B_14  and  N9A_15 
REMARK    8  A    between atoms: C6A_20  and  N6A_21 
REMARK    9  A    between atoms: O3_30  and  PN_31 
REMARK   10  A    between atoms: PN_31  and  O5D_34 
REMARK   11  A    between atoms: O5D_34  and  C5D_35 
REMARK   12  A    between atoms: C5D_35  and  C4D_36 
REMARK   13  A    between atoms: C3D_38  and  O3D_39 
REMARK   14  A    between atoms: C2D_41  and  O2D_42 
REMARK   15  A    between atoms: C1D_44  and  N1N_45 
REMARK   16  A    between atoms: C3N_47  and  C7N_48 
REMARK       I    between atoms: C7N_48  and  N7N_50 
REMARK   17  A    between atoms: C4N_53  and  C7Z_56 
REMARK   18  A    between atoms: C7Z_56  and  O7Z_57 
REMARK   19  A    between atoms: C7Z_56  and  C4Z_63 
ROOT
HETATM    1  PN  ZID A 300       5.419 -27.714   9.236  1.00 26.51     0.417 P 
HETATM    2  O1N ZID A 300       6.024 -27.263   7.946  1.00 30.48    -0.624 OA
HETATM    3  O2N ZID A 300       6.042 -27.393  10.565  1.00 28.40    -0.624 OA
ENDROOT
BRANCH   1   4
HETATM    4  O3  ZID A 300       5.145 -29.310   9.025  1.00 30.29    -0.180 OA
BRANCH   4   5
HETATM    5  PA  ZID A 300       4.829 -30.437  10.184  1.00 28.62     0.417 P 
HETATM    6  O1A ZID A 300       3.954 -29.694  11.162  1.00 28.37    -0.624 OA
HETATM    7  O2A ZID A 300       4.442 -31.750   9.579  1.00 30.19    -0.624 OA
BRANCH   5   8
HETATM    8  O5B ZID A 300       6.280 -30.702  10.786  1.00 29.52    -0.287 OA
BRANCH   8   9
HETATM    9  C5B ZID A 300       6.629 -30.383  12.119  1.00 27.76     0.216 C 
BRANCH   9  10
HETATM   10  C4B ZID A 300       6.898 -31.743  12.720  1.00 27.48     0.180 C 
HETATM   11  O4B ZID A 300       5.692 -32.239  13.286  1.00 27.81    -0.353 OA
HETATM   12  C1B ZID A 300       5.748 -33.631  13.139  1.00 28.20     0.262 C 
HETATM   13  C2B ZID A 300       6.263 -33.826  11.706  1.00 28.50     0.198 C 
HETATM   14  C3B ZID A 300       7.343 -32.773  11.655  1.00 25.42     0.182 C 
BRANCH  12  15
HETATM   15  N9A ZID A 300       4.487 -34.348  13.317  1.00 26.08    -0.297 N 
HETATM   16  C8A ZID A 300       4.309 -35.471  14.032  1.00 24.53     0.188 A 
HETATM   17  N7A ZID A 300       3.012 -35.744  14.028  1.00 23.35    -0.346 N 
HETATM   18  C5A ZID A 300       2.366 -34.753  13.356  1.00 25.38     0.122 A 
ATOM     19  H7A ZID A 300       2.573 -36.560  14.455  1.00  0.00     0.167 HD
HETATM   20  C6A ZID A 300       1.035 -34.510  13.053  1.00 23.71     0.131 A 
HETATM   21  C4A ZID A 300       3.313 -33.868  12.935  1.00 23.66     0.142 A 
HETATM   22  N1A ZID A 300       0.735 -33.434  12.319  1.00 27.06    -0.337 N 
HETATM   23  C2A ZID A 300       1.696 -32.562  11.934  1.00 25.81     0.183 A 
ATOM     24  H1A ZID A 300      -0.234 -33.267  12.046  1.00  0.00     0.168 HD
HETATM   25  N3A ZID A 300       2.972 -32.783  12.225  1.00 26.02    -0.336 N 
ATOM     26  H3A ZID A 300       3.690 -32.131  11.909  1.00  0.00     0.168 HD
BRANCH  20  27
HETATM   27  N6A ZID A 300       0.051 -35.346  13.455  1.00 26.06    -0.383 N 
ATOM     28 2H6A ZID A 300      -0.640 -35.678  12.782  1.00  0.00     0.157 HD
ATOM     29 1H6A ZID A 300      -0.011 -35.676  14.418  1.00  0.00     0.157 HD
ENDBRANCH  20  27
ENDBRANCH  12  15
BRANCH  13  30
HETATM   30  O2B ZID A 300       6.770 -35.154  11.501  1.00 34.28    -0.388 OA
ATOM     31  H2B ZID A 300       6.088 -35.779  11.286  1.00  0.00     0.210 HD
ENDBRANCH  13  30
BRANCH  14  32
HETATM   32  O3B ZID A 300       8.555 -33.347  12.093  1.00 26.39    -0.390 OA
ATOM     33  H3B ZID A 300       8.376 -34.246  12.342  1.00  0.00     0.210 HD
ENDBRANCH  14  32
ENDBRANCH   9  10
ENDBRANCH   8   9
ENDBRANCH   5   8
ENDBRANCH   4   5
ENDBRANCH   1   4
BRANCH   1  34
HETATM   34  O5D ZID A 300       3.906 -27.250   9.347  1.00 27.38    -0.287 OA
BRANCH  34  35
HETATM   35  C5D ZID A 300       3.119 -26.885   8.218  1.00 26.32     0.216 C 
BRANCH  35  36
HETATM   36  C4D ZID A 300       1.882 -27.786   8.163  1.00 26.54     0.180 C 
HETATM   37  O4D ZID A 300       1.792 -28.388   9.492  1.00 26.70    -0.353 OA
HETATM   38  C1D ZID A 300       0.460 -28.289   9.897  1.00 24.37     0.259 C 
HETATM   39  C2D ZID A 300       0.015 -26.940   9.300  1.00 23.83     0.198 C 
HETATM   40  C3D ZID A 300       0.575 -26.999   7.904  1.00 24.97     0.182 C 
BRANCH  38  41
HETATM   41  N1N ZID A 300       0.188 -28.229  11.313  1.00 25.28    -0.336 N 
HETATM   42  C2N ZID A 300      -0.297 -29.315  11.970  1.00 22.44     0.111 A 
HETATM   43  C3N ZID A 300      -0.465 -29.243  13.300  1.00 25.89     0.056 A 
HETATM   44  C4N ZID A 300      -0.097 -28.021  13.896  1.00 26.60    -0.007 A 
HETATM   45  C5N ZID A 300       0.484 -26.978  13.224  1.00 27.45     0.028 A 
HETATM   46  C6N ZID A 300       0.592 -27.119  11.894  1.00 24.23     0.094 A 
BRANCH  43  47
HETATM   47  C7N ZID A 300      -1.137 -30.391  14.067  1.00 28.02     0.251 C 
HETATM   48  O7N ZID A 300      -0.529 -31.450  14.313  1.00 26.84    -0.268 OA
HETATM   49  N7N ZID A 300      -2.449 -30.382  14.220  1.00 23.44    -0.366 N 
ATOM     50 2H7N ZID A 300      -2.946 -29.515  14.019  1.00  0.00     0.159 HD
ATOM     51 1H7N ZID A 300      -2.895 -31.145  14.729  1.00  0.00     0.159 HD
ENDBRANCH  43  47
BRANCH  44  52
HETATM   52  C7Z ZID A 300       0.091 -28.178  15.237  1.00 27.75     0.185 C 
BRANCH  52  53
HETATM   53  O7Z ZID A 300       1.176 -27.101  15.117  1.00 23.71    -0.386 OA
ATOM     54  H7Z ZID A 300       1.236 -27.345  14.201  1.00  0.00     0.210 HD
ENDBRANCH  52  53
BRANCH  52  55
HETATM   55  C4Z ZID A 300      -0.482 -27.472  16.396  1.00 23.40    -0.023 A 
HETATM   56  C3Z ZID A 300      -1.182 -28.136  17.375  1.00 23.67     0.027 A 
HETATM   57  C2Z ZID A 300      -1.535 -27.413  18.505  1.00 22.98     0.088 A 
HETATM   58  N1Z ZID A 300      -1.179 -26.114  18.672  1.00 25.57    -0.375 N 
HETATM   59  C6Z ZID A 300      -0.426 -25.456  17.762  1.00 26.04     0.088 A 
ATOM     60  H1Z ZID A 300      -1.488 -25.620  19.509  1.00  0.00     0.164 HD
HETATM   61  C5Z ZID A 300      -0.050 -26.132  16.623  1.00 24.83     0.027 A 
ENDBRANCH  52  55
ENDBRANCH  44  52
ENDBRANCH  38  41
BRANCH  39  62
HETATM   62  O2D ZID A 300      -1.417 -26.647   9.260  1.00 23.60    -0.388 OA
ATOM     63  H2D ZID A 300      -1.565 -25.713   9.348  1.00  0.00     0.210 HD
ENDBRANCH  39  62
BRANCH  40  64
HETATM   64  O3D ZID A 300      -0.350 -27.803   7.109  1.00 26.13    -0.390 OA
ATOM     65  H3D ZID A 300      -0.835 -27.248   6.509  1.00  0.00     0.210 HD
ENDBRANCH  40  64
ENDBRANCH  35  36
ENDBRANCH  34  35
ENDBRANCH   1  34
TORSDOF 19
ENDMDL
MODEL 7
REMARK VINA RESULT:      -9.8      1.769      3.149
REMARK  19 active torsions:
REMARK  status: ('A' for Active; 'I' for Inactive)
REMARK    1  A    between atoms: PA_1  and  O5B_4 
REMARK    2  A    between atoms: PA_1  and  O3_30 
REMARK    3  A    between atoms: O5B_4  and  C5B_5 
REMARK    4  A    between atoms: C5B_5  and  C4B_6 
REMARK    5  A    between atoms: C3B_8  and  O3B_9 
REMARK    6  A    between atoms: C2B_11  and  O2B_12 
REMARK    7  A    between atoms: C1B_14  and  N9A_15 
REMARK    8  A    between atoms: C6A_20  and  N6A_21 
REMARK    9  A    between atoms: O3_30  and  PN_31 
REMARK   10  A    between atoms: PN_31  and  O5D_34 
REMARK   11  A    between atoms: O5D_34  and  C5D_35 
REMARK   12  A    between atoms: C5D_35  and  C4D_36 
REMARK   13  A    between atoms: C3D_38  and  O3D_39 
REMARK   14  A    between atoms: C2D_41  and  O2D_42 
REMARK   15  A    between atoms: C1D_44  and  N1N_45 
REMARK   16  A    between atoms: C3N_47  and  C7N_48 
REMARK       I    between atoms: C7N_48  and  N7N_50 
REMARK   17  A    between atoms: C4N_53  and  C7Z_56 
REMARK   18  A    between atoms: C7Z_56  and  O7Z_57 
REMARK   19  A    between atoms: C7Z_56  and  C4Z_63 
ROOT
HETATM    1  PN  ZID A 300       0.534 -33.379  10.619  1.00 26.51     0.417 P 
HETATM    2  O1N ZID A 300      -0.445 -33.107  11.715  1.00 30.48    -0.624 OA
HETATM    3  O2N ZID A 300       0.170 -34.185   9.405  1.00 28.40    -0.624 OA
ENDROOT
BRANCH   1   4
HETATM    4  O3  ZID A 300       1.863 -33.941  11.386  1.00 30.29    -0.180 OA
BRANCH   4   5
HETATM    5  PA  ZID A 300       1.950 -34.593  12.896  1.00 28.62     0.417 P 
HETATM    6  O1A ZID A 300       2.382 -33.430  13.753  1.00 28.37    -0.624 OA
HETATM    7  O2A ZID A 300       0.745 -35.427  13.201  1.00 30.19    -0.624 OA
BRANCH   5   8
HETATM    8  O5B ZID A 300       3.123 -35.657  12.725  1.00 29.52    -0.287 OA
BRANCH   8   9
HETATM    9  C5B ZID A 300       3.797 -36.241  13.823  1.00 27.76     0.216 C 
BRANCH   9  10
HETATM   10  C4B ZID A 300       5.224 -36.306  13.331  1.00 27.48     0.180 C 
HETATM   11  O4B ZID A 300       5.353 -35.468  12.189  1.00 27.81    -0.353 OA
HETATM   12  C1B ZID A 300       6.664 -34.976  12.226  1.00 28.20     0.262 C 
HETATM   13  C2B ZID A 300       6.869 -34.595  13.698  1.00 28.50     0.198 C 
HETATM   14  C3B ZID A 300       6.229 -35.779  14.382  1.00 25.42     0.182 C 
BRANCH  12  15
HETATM   15  N9A ZID A 300       6.942 -33.825  11.370  1.00 26.08    -0.297 N 
HETATM   16  C8A ZID A 300       8.005 -33.676  10.564  1.00 24.53     0.188 A 
HETATM   17  N7A ZID A 300       7.838 -32.549   9.887  1.00 23.35    -0.346 N 
HETATM   18  C5A ZID A 300       6.632 -32.018  10.227  1.00 25.38     0.122 A 
ATOM     19  H7A ZID A 300       8.501 -32.146   9.224  1.00  0.00     0.167 HD
HETATM   20  C6A ZID A 300       5.940 -30.881   9.838  1.00 23.71     0.131 A 
HETATM   21  C4A ZID A 300       6.070 -32.851  11.149  1.00 23.66     0.142 A 
HETATM   22  N1A ZID A 300       4.762 -30.623  10.413  1.00 27.06    -0.337 N 
HETATM   23  C2A ZID A 300       4.221 -31.482  11.309  1.00 25.81     0.183 A 
ATOM     24  H1A ZID A 300       4.263 -29.767  10.174  1.00  0.00     0.168 HD
HETATM   25  N3A ZID A 300       4.873 -32.575  11.685  1.00 26.02    -0.336 N 
ATOM     26  H3A ZID A 300       4.466 -33.202  12.379  1.00  0.00     0.168 HD
BRANCH  20  27
HETATM   27  N6A ZID A 300       6.442 -30.025   8.918  1.00 26.06    -0.383 N 
ATOM     28 2H6A ZID A 300       7.012 -29.234   9.219  1.00  0.00     0.157 HD
ATOM     29 1H6A ZID A 300       6.283 -30.158   7.919  1.00  0.00     0.157 HD
ENDBRANCH  20  27
ENDBRANCH  12  15
BRANCH  13  30
HETATM   30  O2B ZID A 300       8.261 -34.453  14.020  1.00 34.28    -0.388 OA
ATOM     31  H2B ZID A 300       8.589 -35.164  14.559  1.00  0.00     0.210 HD
ENDBRANCH  13  30
BRANCH  14  32
HETATM   32  O3B ZID A 300       7.210 -36.774  14.576  1.00 26.39    -0.390 OA
ATOM     33  H3B ZID A 300       7.875 -36.659  13.907  1.00  0.00     0.210 HD
ENDBRANCH  14  32
ENDBRANCH   9  10
ENDBRANCH   8   9
ENDBRANCH   5   8
ENDBRANCH   4   5
ENDBRANCH   1   4
BRANCH   1  34
HETATM   34  O5D ZID A 300       1.160 -32.029  10.067  1.00 27.38    -0.287 OA
BRANCH  34  35
HETATM   35  C5D ZID A 300       1.134 -31.665   8.691  1.00 26.32     0.216 C 
BRANCH  35  36
HETATM   36  C4D ZID A 300       0.720 -30.196   8.574  1.00 26.54     0.180 C 
HETATM   37  O4D ZID A 300      -0.154 -29.955   9.721  1.00 26.70    -0.353 OA
HETATM   38  C1D ZID A 300       0.250 -28.750  10.297  1.00 24.37     0.259 C 
HETATM   39  C2D ZID A 300       1.778 -28.765  10.100  1.00 23.83     0.198 C 
HETATM   40  C3D ZID A 300       1.919 -29.222   8.673  1.00 24.97     0.182 C 
BRANCH  38  41
HETATM   41  N1N ZID A 300       0.013 -28.565  11.709  1.00 25.28    -0.336 N 
HETATM   42  C2N ZID A 300      -0.119 -29.636  12.534  1.00 22.44     0.111 A 
HETATM   43  C3N ZID A 300      -0.261 -29.423  13.852  1.00 25.89     0.056 A 
HETATM   44  C4N ZID A 300      -0.246 -28.074  14.256  1.00 26.60    -0.007 A 
HETATM   45  C5N ZID A 300      -0.010 -27.018  13.415  1.00 27.45     0.028 A 
HETATM   46  C6N ZID A 300       0.095 -27.315  12.111  1.00 24.23     0.094 A 
BRANCH  43  47
HETATM   47  C7N ZID A 300      -0.551 -30.591  14.807  1.00 28.02     0.251 C 
HETATM   48  O7N ZID A 300      -0.984 -30.395  15.958  1.00 26.84    -0.268 OA
HETATM   49  N7N ZID A 300      -0.073 -31.788  14.522  1.00 23.44    -0.366 N 
ATOM     50 2H7N ZID A 300       0.282 -31.949  13.580  1.00  0.00     0.159 HD
ATOM     51 1H7N ZID A 300      -0.265 -32.564  15.157  1.00  0.00     0.159 HD
ENDBRANCH  43  47
BRANCH  44  52
HETATM   52  C7Z ZID A 300       0.018 -27.975  15.590  1.00 27.75     0.185 C 
BRANCH  52  53
HETATM   53  O7Z ZID A 300       1.156 -27.025  15.200  1.00 23.71    -0.386 OA
ATOM     54  H7Z ZID A 300       1.592 -27.312  15.994  1.00  0.00     0.210 HD
ENDBRANCH  52  53
BRANCH  52  55
HETATM   55  C4Z ZID A 300      -0.435 -27.015  16.610  1.00 23.40    -0.023 A 
HETATM   56  C3Z ZID A 300      -1.055 -27.424  17.766  1.00 23.67     0.027 A 
HETATM   57  C2Z ZID A 300      -1.292 -26.461  18.736  1.00 22.98     0.088 A 
HETATM   58  N1Z ZID A 300      -0.899 -25.171  18.584  1.00 25.57    -0.375 N 
HETATM   59  C6Z ZID A 300      -0.221 -24.754  17.492  1.00 26.04     0.088 A 
ATOM     60  H1Z ZID A 300      -1.123 -24.496  19.315  1.00  0.00     0.164 HD
HETATM   61  C5Z ZID A 300       0.039 -25.675  16.501  1.00 24.83     0.027 A 
ENDBRANCH  52  55
ENDBRANCH  44  52
ENDBRANCH  38  41
BRANCH  39  62
HETATM   62  O2D ZID A 300       2.508 -27.515  10.306  1.00 23.60    -0.388 OA
ATOM     63  H2D ZID A 300       3.255 -27.660  10.875  1.00  0.00     0.210 HD
ENDBRANCH  39  62
BRANCH  40  64
HETATM   64  O3D ZID A 300       1.691 -28.052   7.828  1.00 26.13    -0.390 OA
ATOM     65  H3D ZID A 300       2.520 -27.655   7.586  1.00  0.00     0.210 HD
ENDBRANCH  40  64
ENDBRANCH  35  36
ENDBRANCH  34  35
ENDBRANCH   1  34
TORSDOF 19
ENDMDL
MODEL 8
REMARK VINA RESULT:      -9.8      2.042      3.581
REMARK  19 active torsions:
REMARK  status: ('A' for Active; 'I' for Inactive)
REMARK    1  A    between atoms: PA_1  and  O5B_4 
REMARK    2  A    between atoms: PA_1  and  O3_30 
REMARK    3  A    between atoms: O5B_4  and  C5B_5 
REMARK    4  A    between atoms: C5B_5  and  C4B_6 
REMARK    5  A    between atoms: C3B_8  and  O3B_9 
REMARK    6  A    between atoms: C2B_11  and  O2B_12 
REMARK    7  A    between atoms: C1B_14  and  N9A_15 
REMARK    8  A    between atoms: C6A_20  and  N6A_21 
REMARK    9  A    between atoms: O3_30  and  PN_31 
REMARK   10  A    between atoms: PN_31  and  O5D_34 
REMARK   11  A    between atoms: O5D_34  and  C5D_35 
REMARK   12  A    between atoms: C5D_35  and  C4D_36 
REMARK   13  A    between atoms: C3D_38  and  O3D_39 
REMARK   14  A    between atoms: C2D_41  and  O2D_42 
REMARK   15  A    between atoms: C1D_44  and  N1N_45 
REMARK   16  A    between atoms: C3N_47  and  C7N_48 
REMARK       I    between atoms: C7N_48  and  N7N_50 
REMARK   17  A    between atoms: C4N_53  and  C7Z_56 
REMARK   18  A    between atoms: C7Z_56  and  O7Z_57 
REMARK   19  A    between atoms: C7Z_56  and  C4Z_63 
ROOT
HETATM    1  PN  ZID A 300       5.409 -28.150   9.434  1.00 26.51     0.417 P 
HETATM    2  O1N ZID A 300       5.869 -28.101   8.014  1.00 30.48    -0.624 OA
HETATM    3  O2N ZID A 300       6.172 -27.484  10.544  1.00 28.40    -0.624 OA
ENDROOT
BRANCH   1   4
HETATM    4  O3  ZID A 300       5.118 -29.733   9.717  1.00 30.29    -0.180 OA
BRANCH   4   5
HETATM    5  PA  ZID A 300       5.614 -30.631  11.005  1.00 28.62     0.417 P 
HETATM    6  O1A ZID A 300       6.474 -31.697  10.375  1.00 28.37    -0.624 OA
HETATM    7  O2A ZID A 300       6.086 -29.761  12.128  1.00 30.19    -0.624 OA
BRANCH   5   8
HETATM    8  O5B ZID A 300       4.237 -31.232  11.535  1.00 29.52    -0.287 OA
BRANCH   8   9
HETATM    9  C5B ZID A 300       3.516 -32.230  10.839  1.00 27.76     0.216 C 
BRANCH   9  10
HETATM   10  C4B ZID A 300       3.284 -33.270  11.912  1.00 27.48     0.180 C 
HETATM   11  O4B ZID A 300       4.088 -34.408  11.626  1.00 27.81    -0.353 OA
HETATM   12  C1B ZID A 300       4.431 -34.952  12.871  1.00 28.20     0.262 C 
HETATM   13  C2B ZID A 300       4.804 -33.725  13.714  1.00 28.50     0.198 C 
HETATM   14  C3B ZID A 300       3.708 -32.768  13.312  1.00 25.42     0.182 C 
BRANCH  12  15
HETATM   15  N9A ZID A 300       5.532 -35.912  12.872  1.00 26.08    -0.297 N 
HETATM   16  C8A ZID A 300       5.558 -37.088  13.519  1.00 24.53     0.188 A 
HETATM   17  N7A ZID A 300       6.684 -37.702  13.187  1.00 23.35    -0.346 N 
HETATM   18  C5A ZID A 300       7.341 -36.932  12.277  1.00 25.38     0.122 A 
ATOM     19  H7A ZID A 300       7.005 -38.599  13.552  1.00  0.00     0.167 HD
HETATM   20  C6A ZID A 300       8.535 -37.072  11.587  1.00 23.71     0.131 A 
HETATM   21  C4A ZID A 300       6.586 -35.816  12.073  1.00 23.66     0.142 A 
HETATM   22  N1A ZID A 300       8.922 -36.083  10.775  1.00 27.06    -0.337 N 
HETATM   23  C2A ZID A 300       8.139 -34.997  10.578  1.00 25.81     0.183 A 
ATOM     24  H1A ZID A 300       9.821 -36.148  10.298  1.00  0.00     0.168 HD
HETATM   25  N3A ZID A 300       6.992 -34.856  11.230  1.00 26.02    -0.336 N 
ATOM     26  H3A ZID A 300       6.422 -34.022  11.090  1.00  0.00     0.168 HD
BRANCH  20  27
HETATM   27  N6A ZID A 300       9.320 -38.164  11.739  1.00 26.06    -0.383 N 
ATOM     28 2H6A ZID A 300       8.970 -39.082  11.464  1.00  0.00     0.157 HD
ATOM     29 1H6A ZID A 300      10.269 -38.094  12.105  1.00  0.00     0.157 HD
ENDBRANCH  20  27
ENDBRANCH  12  15
BRANCH  13  30
HETATM   30  O2B ZID A 300       4.793 -34.024  15.119  1.00 34.28    -0.388 OA
ATOM     31  H2B ZID A 300       5.129 -34.892  15.313  1.00  0.00     0.210 HD
ENDBRANCH  13  30
BRANCH  14  32
HETATM   32  O3B ZID A 300       2.613 -32.944  14.182  1.00 26.39    -0.390 OA
ATOM     33  H3B ZID A 300       1.836 -32.625  13.738  1.00  0.00     0.210 HD
ENDBRANCH  14  32
ENDBRANCH   9  10
ENDBRANCH   8   9
ENDBRANCH   5   8
ENDBRANCH   4   5
ENDBRANCH   1   4
BRANCH   1  34
HETATM   34  O5D ZID A 300       3.916 -27.631   9.566  1.00 27.38    -0.287 OA
BRANCH  34  35
HETATM   35  C5D ZID A 300       3.217 -26.994   8.502  1.00 26.32     0.216 C 
BRANCH  35  36
HETATM   36  C4D ZID A 300       1.840 -27.647   8.350  1.00 26.54     0.180 C 
HETATM   37  O4D ZID A 300       1.569 -28.265   9.647  1.00 26.70    -0.353 OA
HETATM   38  C1D ZID A 300       0.259 -27.934   9.992  1.00 24.37     0.259 C 
HETATM   39  C2D ZID A 300       0.101 -26.507   9.433  1.00 23.83     0.198 C 
HETATM   40  C3D ZID A 300       0.716 -26.623   8.064  1.00 24.97     0.182 C 
BRANCH  38  41
HETATM   41  N1N ZID A 300      -0.074 -27.871  11.396  1.00 25.28    -0.336 N 
HETATM   42  C2N ZID A 300      -0.999 -28.714  11.925  1.00 22.44     0.111 A 
HETATM   43  C3N ZID A 300      -1.225 -28.677  13.248  1.00 25.89     0.056 A 
HETATM   44  C4N ZID A 300      -0.450 -27.751  13.973  1.00 26.60    -0.007 A 
HETATM   45  C5N ZID A 300       0.547 -26.984  13.428  1.00 27.45     0.028 A 
HETATM   46  C6N ZID A 300       0.691 -27.061  12.096  1.00 24.23     0.094 A 
BRANCH  43  47
HETATM   47  C7N ZID A 300      -2.354 -29.509  13.873  1.00 28.02     0.251 C 
HETATM   48  O7N ZID A 300      -3.396 -28.975  14.296  1.00 26.84    -0.268 OA
HETATM   49  N7N ZID A 300      -2.111 -30.758  14.228  1.00 23.44    -0.366 N 
ATOM     50 2H7N ZID A 300      -1.258 -31.196  13.881  1.00  0.00     0.159 HD
ATOM     51 1H7N ZID A 300      -2.861 -31.311  14.644  1.00  0.00     0.159 HD
ENDBRANCH  43  47
BRANCH  44  52
HETATM   52  C7Z ZID A 300      -0.442 -28.065  15.299  1.00 27.75     0.185 C 
BRANCH  52  53
HETATM   53  O7Z ZID A 300       1.084 -27.924  15.228  1.00 23.71    -0.386 OA
ATOM     54  H7Z ZID A 300       1.038 -28.449  14.438  1.00  0.00     0.210 HD
ENDBRANCH  52  53
BRANCH  52  55
HETATM   55  C4Z ZID A 300      -0.464 -27.221  16.506  1.00 23.40    -0.023 A 
HETATM   56  C3Z ZID A 300      -0.058 -25.909  16.481  1.00 23.67     0.027 A 
HETATM   57  C2Z ZID A 300      -0.274 -25.154  17.625  1.00 22.98     0.088 A 
HETATM   58  N1Z ZID A 300      -0.896 -25.663  18.718  1.00 25.57    -0.375 N 
HETATM   59  C6Z ZID A 300      -1.375 -26.926  18.746  1.00 26.04     0.088 A 
ATOM     60  H1Z ZID A 300      -1.005 -25.073  19.544  1.00  0.00     0.164 HD
HETATM   61  C5Z ZID A 300      -1.184 -27.715  17.633  1.00 24.83     0.027 A 
ENDBRANCH  52  55
ENDBRANCH  44  52
ENDBRANCH  38  41
BRANCH  39  62
HETATM   62  O2D ZID A 300      -1.248 -25.952   9.337  1.00 23.60    -0.388 OA
ATOM     63  H2D ZID A 300      -1.442 -25.712   8.439  1.00  0.00     0.210 HD
ENDBRANCH  39  62
BRANCH  40  64
HETATM   64  O3D ZID A 300      -0.297 -27.215   7.193  1.00 26.13    -0.390 OA
ATOM     65  H3D ZID A 300       0.097 -27.871   6.630  1.00  0.00     0.210 HD
ENDBRANCH  40  64
ENDBRANCH  35  36
ENDBRANCH  34  35
ENDBRANCH   1  34
TORSDOF 19
ENDMDL
MODEL 9
REMARK VINA RESULT:      -9.6      2.861      8.629
REMARK  19 active torsions:
REMARK  status: ('A' for Active; 'I' for Inactive)
REMARK    1  A    between atoms: PA_1  and  O5B_4 
REMARK    2  A    between atoms: PA_1  and  O3_30 
REMARK    3  A    between atoms: O5B_4  and  C5B_5 
REMARK    4  A    between atoms: C5B_5  and  C4B_6 
REMARK    5  A    between atoms: C3B_8  and  O3B_9 
REMARK    6  A    between atoms: C2B_11  and  O2B_12 
REMARK    7  A    between atoms: C1B_14  and  N9A_15 
REMARK    8  A    between atoms: C6A_20  and  N6A_21 
REMARK    9  A    between atoms: O3_30  and  PN_31 
REMARK   10  A    between atoms: PN_31  and  O5D_34 
REMARK   11  A    between atoms: O5D_34  and  C5D_35 
REMARK   12  A    between atoms: C5D_35  and  C4D_36 
REMARK   13  A    between atoms: C3D_38  and  O3D_39 
REMARK   14  A    between atoms: C2D_41  and  O2D_42 
REMARK   15  A    between atoms: C1D_44  and  N1N_45 
REMARK   16  A    between atoms: C3N_47  and  C7N_48 
REMARK       I    between atoms: C7N_48  and  N7N_50 
REMARK   17  A    between atoms: C4N_53  and  C7Z_56 
REMARK   18  A    between atoms: C7Z_56  and  O7Z_57 
REMARK   19  A    between atoms: C7Z_56  and  C4Z_63 
ROOT
HETATM    1  PN  ZID A 300       3.997 -34.888  14.603  1.00 26.51     0.417 P 
HETATM    2  O1N ZID A 300       3.490 -36.250  14.257  1.00 30.48    -0.624 OA
HETATM    3  O2N ZID A 300       4.275 -34.475  16.020  1.00 28.40    -0.624 OA
ENDROOT
BRANCH   1   4
HETATM    4  O3  ZID A 300       2.990 -33.865  13.823  1.00 30.29    -0.180 OA
BRANCH   4   5
HETATM    5  PA  ZID A 300       1.784 -34.251  12.771  1.00 28.62     0.417 P 
HETATM    6  O1A ZID A 300       2.527 -34.709  11.541  1.00 28.37    -0.624 OA
HETATM    7  O2A ZID A 300       0.722 -35.072  13.434  1.00 30.19    -0.624 OA
BRANCH   5   8
HETATM    8  O5B ZID A 300       1.089 -32.837  12.537  1.00 29.52    -0.287 OA
BRANCH   8   9
HETATM    9  C5B ZID A 300       1.567 -31.639  13.119  1.00 27.76     0.216 C 
BRANCH   9  10
HETATM   10  C4B ZID A 300       0.400 -31.207  13.977  1.00 27.48     0.180 C 
HETATM   11  O4B ZID A 300       0.815 -30.126  14.802  1.00 27.81    -0.353 OA
HETATM   12  C1B ZID A 300      -0.321 -29.325  14.976  1.00 28.20     0.262 C 
HETATM   13  C2B ZID A 300      -0.935 -29.252  13.572  1.00 28.50     0.198 C 
HETATM   14  C3B ZID A 300      -0.786 -30.688  13.130  1.00 25.42     0.182 C 
BRANCH  12  15
HETATM   15  N9A ZID A 300      -0.084 -27.976  15.487  1.00 26.08    -0.297 N 
HETATM   16  C8A ZID A 300       0.495 -26.966  14.817  1.00 24.53     0.188 A 
HETATM   17  N7A ZID A 300       0.432 -25.889  15.587  1.00 23.35    -0.346 N 
HETATM   18  C5A ZID A 300      -0.245 -26.212  16.722  1.00 25.38     0.122 A 
ATOM     19  H7A ZID A 300       0.826 -24.974  15.366  1.00  0.00     0.167 HD
HETATM   20  C6A ZID A 300      -0.614 -25.499  17.853  1.00 23.71     0.131 A 
HETATM   21  C4A ZID A 300      -0.583 -27.529  16.630  1.00 23.66     0.142 A 
HETATM   22  N1A ZID A 300      -1.255 -26.145  18.832  1.00 27.06    -0.337 N 
HETATM   23  C2A ZID A 300      -1.596 -27.449  18.701  1.00 25.81     0.183 A 
ATOM     24  H1A ZID A 300      -1.491 -25.649  19.691  1.00  0.00     0.168 HD
HETATM   25  N3A ZID A 300      -1.251 -28.137  17.620  1.00 26.02    -0.336 N 
ATOM     26  H3A ZID A 300      -1.493 -29.126  17.543  1.00  0.00     0.168 HD
BRANCH  20  27
HETATM   27  N6A ZID A 300      -0.317 -24.187  17.995  1.00 26.06    -0.383 N 
ATOM     28 2H6A ZID A 300       0.632 -23.859  17.813  1.00  0.00     0.157 HD
ATOM     29 1H6A ZID A 300      -1.026 -23.503  18.261  1.00  0.00     0.157 HD
ENDBRANCH  20  27
ENDBRANCH  12  15
BRANCH  13  30
HETATM   30  O2B ZID A 300      -2.305 -28.822  13.613  1.00 34.28    -0.388 OA
ATOM     31  H2B ZID A 300      -2.401 -27.886  13.485  1.00  0.00     0.210 HD
ENDBRANCH  13  30
BRANCH  14  32
HETATM   32  O3B ZID A 300      -1.938 -31.402  13.520  1.00 26.39    -0.390 OA
ATOM     33  H3B ZID A 300      -2.324 -30.949  14.260  1.00  0.00     0.210 HD
ENDBRANCH  14  32
ENDBRANCH   9  10
ENDBRANCH   8   9
ENDBRANCH   5   8
ENDBRANCH   4   5
ENDBRANCH   1   4
BRANCH   1  34
HETATM   34  O5D ZID A 300       5.317 -34.550  13.790  1.00 27.38    -0.287 OA
BRANCH  34  35
HETATM   35  C5D ZID A 300       5.965 -33.283  13.849  1.00 26.32     0.216 C 
BRANCH  35  36
HETATM   36  C4D ZID A 300       6.491 -32.929  12.456  1.00 26.54     0.180 C 
HETATM   37  O4D ZID A 300       5.307 -32.905  11.598  1.00 26.70    -0.353 OA
HETATM   38  C1D ZID A 300       5.388 -31.749  10.821  1.00 24.37     0.259 C 
HETATM   39  C2D ZID A 300       6.037 -30.730  11.778  1.00 23.83     0.198 C 
HETATM   40  C3D ZID A 300       7.151 -31.530  12.399  1.00 24.97     0.182 C 
BRANCH  38  41
HETATM   41  N1N ZID A 300       4.154 -31.158  10.359  1.00 25.28    -0.336 N 
HETATM   42  C2N ZID A 300       3.185 -31.931   9.801  1.00 22.44     0.111 A 
HETATM   43  C3N ZID A 300       2.022 -31.357   9.453  1.00 25.89     0.056 A 
HETATM   44  C4N ZID A 300       1.918 -29.978   9.723  1.00 26.60    -0.007 A 
HETATM   45  C5N ZID A 300       2.872 -29.246  10.379  1.00 27.45     0.028 A 
HETATM   46  C6N ZID A 300       4.015 -29.887  10.668  1.00 24.23     0.094 A 
BRANCH  43  47
HETATM   47  C7N ZID A 300       0.951 -32.155   8.696  1.00 28.02     0.251 C 
HETATM   48  O7N ZID A 300       0.594 -31.833   7.547  1.00 26.84    -0.268 OA
HETATM   49  N7N ZID A 300       0.196 -33.010   9.361  1.00 23.44    -0.366 N 
ATOM     50 2H7N ZID A 300       0.488 -33.274  10.302  1.00  0.00     0.159 HD
ATOM     51 1H7N ZID A 300      -0.515 -33.541   8.858  1.00  0.00     0.159 HD
ENDBRANCH  43  47
BRANCH  44  52
HETATM   52  C7Z ZID A 300       0.613 -29.587   9.729  1.00 27.75     0.185 C 
BRANCH  52  53
HETATM   53  O7Z ZID A 300       1.029 -28.533  10.762  1.00 23.71    -0.386 OA
ATOM     54  H7Z ZID A 300       1.179 -29.258  11.357  1.00  0.00     0.210 HD
ENDBRANCH  52  53
BRANCH  52  55
HETATM   55  C4Z ZID A 300      -0.105 -28.554   8.963  1.00 23.40    -0.023 A 
HETATM   56  C3Z ZID A 300       0.467 -27.338   8.675  1.00 23.67     0.027 A 
HETATM   57  C2Z ZID A 300      -0.222 -26.501   7.809  1.00 22.98     0.088 A 
HETATM   58  N1Z ZID A 300      -1.393 -26.867   7.229  1.00 25.57    -0.375 N 
HETATM   59  C6Z ZID A 300      -1.941 -28.086   7.433  1.00 26.04     0.088 A 
ATOM     60  H1Z ZID A 300      -1.873 -26.203   6.621  1.00  0.00     0.164 HD
HETATM   61  C5Z ZID A 300      -1.294 -28.953   8.285  1.00 24.83     0.027 A 
ENDBRANCH  52  55
ENDBRANCH  44  52
ENDBRANCH  38  41
BRANCH  39  62
HETATM   62  O2D ZID A 300       6.561 -29.490  11.208  1.00 23.60    -0.388 OA
ATOM     63  H2D ZID A 300       7.330 -29.669  10.680  1.00  0.00     0.210 HD
ENDBRANCH  39  62
BRANCH  40  64
HETATM   64  O3D ZID A 300       8.256 -31.532  11.443  1.00 26.13    -0.390 OA
ATOM     65  H3D ZID A 300       7.965 -31.196  10.604  1.00  0.00     0.210 HD
ENDBRANCH  40  64
ENDBRANCH  35  36
ENDBRANCH  34  35
ENDBRANCH   1  34
TORSDOF 19
ENDMDL
