MODEL 1
REMARK VINA RESULT:     -11.1      0.000      0.000
REMARK  19 active torsions:
REMARK  status: ('A' for Active; 'I' for Inactive)
REMARK    1  A    between atoms: PA_1  and  O5B_4 
REMARK    2  A    between atoms: PA_1  and  O3_30 
REMARK    3  A    between atoms: O5B_4  and  C5B_5 
REMARK    4  A    between atoms: C5B_5  and  C4B_6 
REMARK    5  A    between atoms: C3B_8  and  O3B_9 
REMARK    6  A    between atoms: C2B_11  and  O2B_12 
REMARK    7  A    between atoms: C1B_14  and  N9A_15 
REMARK    8  A    between atoms: C6A_20  and  N6A_21 
REMARK    9  A    between atoms: O3_30  and  PN_31 
REMARK   10  A    between atoms: PN_31  and  O5D_34 
REMARK   11  A    between atoms: O5D_34  and  C5D_35 
REMARK   12  A    between atoms: C5D_35  and  C4D_36 
REMARK   13  A    between atoms: C3D_38  and  O3D_39 
REMARK   14  A    between atoms: C2D_41  and  O2D_42 
REMARK   15  A    between atoms: C1D_44  and  N1N_45 
REMARK   16  A    between atoms: C3N_47  and  C7N_48 
REMARK       I    between atoms: C7N_48  and  N7N_50 
REMARK   17  A    between atoms: C4N_53  and  C7Z_56 
REMARK   18  A    between atoms: C7Z_56  and  O7Z_57 
REMARK   19  A    between atoms: C7Z_56  and  C4Z_63 
ROOT
HETATM    1  PN  ZID A 300       0.710  34.020 -10.868  1.00 26.51     0.417 P 
HETATM    2  O1N ZID A 300      -0.341  33.587 -11.838  1.00 30.48    -0.624 OA
HETATM    3  O2N ZID A 300       0.387  34.851  -9.659  1.00 28.40    -0.624 OA
ENDROOT
BRANCH   1   4
HETATM    4  O3  ZID A 300       1.884  34.671 -11.799  1.00 30.29    -0.180 OA
BRANCH   4   5
HETATM    5  PA  ZID A 300       2.093  36.257 -12.188  1.00 28.62     0.417 P 
HETATM    6  O1A ZID A 300       0.843  36.594 -12.962  1.00 28.37    -0.624 OA
HETATM    7  O2A ZID A 300       2.560  37.053 -11.008  1.00 30.19    -0.624 OA
BRANCH   5   8
HETATM    8  O5B ZID A 300       3.368  36.195 -13.140  1.00 29.52    -0.287 OA
BRANCH   8   9
HETATM    9  C5B ZID A 300       3.278  35.941 -14.530  1.00 27.76     0.216 C 
BRANCH   9  10
HETATM   10  C4B ZID A 300       4.725  35.739 -14.917  1.00 27.48     0.180 C 
HETATM   11  O4B ZID A 300       5.552  36.269 -13.888  1.00 27.81    -0.353 OA
HETATM   12  C1B ZID A 300       6.702  35.469 -13.876  1.00 28.20     0.262 C 
HETATM   13  C2B ZID A 300       6.154  34.041 -13.999  1.00 28.50     0.198 C 
HETATM   14  C3B ZID A 300       5.090  34.243 -15.051  1.00 25.42     0.182 C 
BRANCH  12  15
HETATM   15  N9A ZID A 300       7.548  35.578 -12.690  1.00 26.08    -0.297 N 
HETATM   16  C8A ZID A 300       7.967  34.561 -11.920  1.00 24.53     0.188 A 
HETATM   17  N7A ZID A 300       8.791  35.062 -11.011  1.00 23.35    -0.346 N 
HETATM   18  C5A ZID A 300       8.937  36.394 -11.250  1.00 25.38     0.122 A 
ATOM     19  H7A ZID A 300       9.239  34.539 -10.258  1.00  0.00     0.167 HD
HETATM   20  C6A ZID A 300       9.667  37.403 -10.642  1.00 23.71     0.131 A 
HETATM   21  C4A ZID A 300       8.161  36.697 -12.329  1.00 23.66     0.142 A 
HETATM   22  N1A ZID A 300       9.551  38.648 -11.114  1.00 27.06    -0.337 N 
HETATM   23  C2A ZID A 300       8.789  38.912 -12.202  1.00 25.81     0.183 A 
ATOM     24  H1A ZID A 300      10.043  39.410 -10.648  1.00  0.00     0.168 HD
HETATM   25  N3A ZID A 300       8.090  37.952 -12.794  1.00 26.02    -0.336 N 
ATOM     26  H3A ZID A 300       7.501  38.168 -13.598  1.00  0.00     0.168 HD
BRANCH  20  27
HETATM   27  N6A ZID A 300      10.464  37.160  -9.575  1.00 26.06    -0.383 N 
ATOM     28 2H6A ZID A 300      10.449  36.242  -9.130  1.00  0.00     0.157 HD
ATOM     29 1H6A ZID A 300      11.102  37.867  -9.211  1.00  0.00     0.157 HD
ENDBRANCH  20  27
ENDBRANCH  12  15
BRANCH  13  30
HETATM   30  O2B ZID A 300       7.173  33.116 -14.409  1.00 34.28    -0.388 OA
ATOM     31  H2B ZID A 300       6.957  32.214 -14.199  1.00  0.00     0.210 HD
ENDBRANCH  13  30
BRANCH  14  32
HETATM   32  O3B ZID A 300       5.670  34.054 -16.322  1.00 26.39    -0.390 OA
ATOM     33  H3B ZID A 300       5.932  34.906 -16.651  1.00  0.00     0.210 HD
ENDBRANCH  14  32
ENDBRANCH   9  10
ENDBRANCH   8   9
ENDBRANCH   5   8
ENDBRANCH   4   5
ENDBRANCH   1   4
BRANCH   1  34
HETATM   34  O5D ZID A 300       1.531  32.774 -10.327  1.00 27.38    -0.287 OA
BRANCH  34  35
HETATM   35  C5D ZID A 300       1.311  32.195  -9.045  1.00 26.32     0.216 C 
BRANCH  35  36
HETATM   36  C4D ZID A 300       1.568  30.688  -9.130  1.00 26.54     0.180 C 
HETATM   37  O4D ZID A 300       0.552  30.182 -10.052  1.00 26.70    -0.353 OA
HETATM   38  C1D ZID A 300       1.199  29.323 -10.942  1.00 24.37     0.259 C 
HETATM   39  C2D ZID A 300       2.577  29.988 -11.127  1.00 23.83     0.198 C 
HETATM   40  C3D ZID A 300       2.959  30.347  -9.716  1.00 24.97     0.182 C 
BRANCH  38  41
HETATM   41  N1N ZID A 300       0.631  29.165 -12.260  1.00 25.28    -0.336 N 
HETATM   42  C2N ZID A 300       0.044  30.216 -12.890  1.00 22.44     0.111 A 
HETATM   43  C3N ZID A 300      -0.404  30.049 -14.145  1.00 25.89     0.056 A 
HETATM   44  C4N ZID A 300      -0.200  28.770 -14.699  1.00 26.60    -0.007 A 
HETATM   45  C5N ZID A 300       0.486  27.759 -14.078  1.00 27.45     0.028 A 
HETATM   46  C6N ZID A 300       0.877  27.998 -12.817  1.00 24.23     0.094 A 
BRANCH  43  47
HETATM   47  C7N ZID A 300      -1.196  31.160 -14.847  1.00 28.02     0.251 C 
HETATM   48  O7N ZID A 300      -2.396  31.012 -15.146  1.00 26.84    -0.268 OA
HETATM   49  N7N ZID A 300      -0.542  32.167 -15.398  1.00 23.44    -0.366 N 
ATOM     50 2H7N ZID A 300       0.440  32.288 -15.154  1.00  0.00     0.159 HD
ATOM     51 1H7N ZID A 300      -1.069  32.905 -15.865  1.00  0.00     0.159 HD
ENDBRANCH  43  47
BRANCH  44  52
HETATM   52  C7Z ZID A 300      -0.297  28.815 -16.057  1.00 27.75     0.185 C 
BRANCH  52  53
HETATM   53  O7Z ZID A 300       1.230  28.679 -16.078  1.00 23.71    -0.386 OA
ATOM     54  H7Z ZID A 300       1.090  27.802 -16.416  1.00  0.00     0.210 HD
ENDBRANCH  52  53
BRANCH  52  55
HETATM   55  C4Z ZID A 300      -0.406  27.748 -17.068  1.00 23.40    -0.023 A 
HETATM   56  C3Z ZID A 300       0.048  26.474 -16.829  1.00 23.67     0.027 A 
HETATM   57  C2Z ZID A 300      -0.250  25.504 -17.774  1.00 22.98     0.088 A 
HETATM   58  N1Z ZID A 300      -0.994  25.775 -18.877  1.00 25.57    -0.375 N 
HETATM   59  C6Z ZID A 300      -1.518  27.001 -19.101  1.00 26.04     0.088 A 
ATOM     60  H1Z ZID A 300      -1.161  25.033 -19.556  1.00  0.00     0.164 HD
HETATM   61  C5Z ZID A 300      -1.250  27.997 -18.190  1.00 24.83     0.027 A 
ENDBRANCH  52  55
ENDBRANCH  44  52
ENDBRANCH  38  41
BRANCH  39  62
HETATM   62  O2D ZID A 300       3.638  29.202 -11.755  1.00 23.60    -0.388 OA
ATOM     63  H2D ZID A 300       3.866  28.460 -11.208  1.00  0.00     0.210 HD
ENDBRANCH  39  62
BRANCH  40  64
HETATM   64  O3D ZID A 300       3.484  29.132  -9.096  1.00 26.13    -0.390 OA
ATOM     65  H3D ZID A 300       2.861  28.420  -9.190  1.00  0.00     0.210 HD
ENDBRANCH  40  64
ENDBRANCH  35  36
ENDBRANCH  34  35
ENDBRANCH   1  34
TORSDOF 19
ENDMDL
MODEL 2
REMARK VINA RESULT:     -11.1      2.110      3.678
REMARK  19 active torsions:
REMARK  status: ('A' for Active; 'I' for Inactive)
REMARK    1  A    between atoms: PA_1  and  O5B_4 
REMARK    2  A    between atoms: PA_1  and  O3_30 
REMARK    3  A    between atoms: O5B_4  and  C5B_5 
REMARK    4  A    between atoms: C5B_5  and  C4B_6 
REMARK    5  A    between atoms: C3B_8  and  O3B_9 
REMARK    6  A    between atoms: C2B_11  and  O2B_12 
REMARK    7  A    between atoms: C1B_14  and  N9A_15 
REMARK    8  A    between atoms: C6A_20  and  N6A_21 
REMARK    9  A    between atoms: O3_30  and  PN_31 
REMARK   10  A    between atoms: PN_31  and  O5D_34 
REMARK   11  A    between atoms: O5D_34  and  C5D_35 
REMARK   12  A    between atoms: C5D_35  and  C4D_36 
REMARK   13  A    between atoms: C3D_38  and  O3D_39 
REMARK   14  A    between atoms: C2D_41  and  O2D_42 
REMARK   15  A    between atoms: C1D_44  and  N1N_45 
REMARK   16  A    between atoms: C3N_47  and  C7N_48 
REMARK       I    between atoms: C7N_48  and  N7N_50 
REMARK   17  A    between atoms: C4N_53  and  C7Z_56 
REMARK   18  A    between atoms: C7Z_56  and  O7Z_57 
REMARK   19  A    between atoms: C7Z_56  and  C4Z_63 
ROOT
HETATM    1  PN  ZID A 300       3.450  35.298 -14.262  1.00 26.51     0.417 P 
HETATM    2  O1N ZID A 300       3.170  33.882 -14.649  1.00 30.48    -0.624 OA
HETATM    3  O2N ZID A 300       3.013  36.459 -15.109  1.00 28.40    -0.624 OA
ENDROOT
BRANCH   1   4
HETATM    4  O3  ZID A 300       5.047  35.321 -13.918  1.00 30.29    -0.180 OA
BRANCH   4   5
HETATM    5  PA  ZID A 300       6.303  35.199 -14.975  1.00 28.62     0.417 P 
HETATM    6  O1A ZID A 300       5.625  34.912 -16.291  1.00 28.37    -0.624 OA
HETATM    7  O2A ZID A 300       7.284  36.315 -14.791  1.00 30.19    -0.624 OA
BRANCH   5   8
HETATM    8  O5B ZID A 300       7.070  33.916 -14.424  1.00 29.52    -0.287 OA
BRANCH   8   9
HETATM    9  C5B ZID A 300       6.645  32.593 -14.689  1.00 27.76     0.216 C 
BRANCH   9  10
HETATM   10  C4B ZID A 300       6.729  31.946 -13.326  1.00 27.48     0.180 C 
HETATM   11  O4B ZID A 300       7.716  32.625 -12.558  1.00 27.81    -0.353 OA
HETATM   12  C1B ZID A 300       7.278  32.552 -11.230  1.00 28.20     0.262 C 
HETATM   13  C2B ZID A 300       5.779  32.867 -11.322  1.00 28.50     0.198 C 
HETATM   14  C3B ZID A 300       5.402  32.061 -12.542  1.00 25.42     0.182 C 
BRANCH  12  15
HETATM   15  N9A ZID A 300       7.922  33.467 -10.290  1.00 26.08    -0.297 N 
HETATM   16  C8A ZID A 300       8.431  33.142  -9.091  1.00 24.53     0.188 A 
HETATM   17  N7A ZID A 300       9.012  34.226  -8.596  1.00 23.35    -0.346 N 
HETATM   18  C5A ZID A 300       8.920  35.222  -9.519  1.00 25.38     0.122 A 
ATOM     19  H7A ZID A 300       9.452  34.301  -7.679  1.00  0.00     0.167 HD
HETATM   20  C6A ZID A 300       9.348  36.540  -9.554  1.00 23.71     0.131 A 
HETATM   21  C4A ZID A 300       8.248  34.716 -10.592  1.00 23.66     0.142 A 
HETATM   22  N1A ZID A 300       9.049  37.279 -10.626  1.00 27.06    -0.337 N 
HETATM   23  C2A ZID A 300       8.399  36.741 -11.685  1.00 25.81     0.183 A 
ATOM     24  H1A ZID A 300       9.314  38.264 -10.647  1.00  0.00     0.168 HD
HETATM   25  N3A ZID A 300       7.990  35.479 -11.663  1.00 26.02    -0.336 N 
ATOM     26  H3A ZID A 300       7.480  35.092 -12.458  1.00  0.00     0.168 HD
BRANCH  20  27
HETATM   27  N6A ZID A 300      10.030  37.092  -8.524  1.00 26.06    -0.383 N 
ATOM     28 2H6A ZID A 300      10.445  36.492  -7.811  1.00  0.00     0.157 HD
ATOM     29 1H6A ZID A 300      10.161  38.101  -8.449  1.00  0.00     0.157 HD
ENDBRANCH  20  27
ENDBRANCH  12  15
BRANCH  13  30
HETATM   30  O2B ZID A 300       5.075  32.451 -10.141  1.00 34.28    -0.388 OA
ATOM     31  H2B ZID A 300       4.217  32.090 -10.332  1.00  0.00     0.210 HD
ENDBRANCH  13  30
BRANCH  14  32
HETATM   32  O3B ZID A 300       5.031  30.765 -12.129  1.00 26.39    -0.390 OA
ATOM     33  H3B ZID A 300       5.621  30.148 -12.547  1.00  0.00     0.210 HD
ENDBRANCH  14  32
ENDBRANCH   9  10
ENDBRANCH   8   9
ENDBRANCH   5   8
ENDBRANCH   4   5
ENDBRANCH   1   4
BRANCH   1  34
HETATM   34  O5D ZID A 300       2.912  35.605 -12.802  1.00 27.38    -0.287 OA
BRANCH  34  35
HETATM   35  C5D ZID A 300       1.565  35.982 -12.532  1.00 26.32     0.216 C 
BRANCH  35  36
HETATM   36  C4D ZID A 300       0.969  35.004 -11.517  1.00 26.54     0.180 C 
HETATM   37  O4D ZID A 300       0.035  34.182 -12.286  1.00 26.70    -0.353 OA
HETATM   38  C1D ZID A 300       0.261  32.855 -11.920  1.00 24.37     0.259 C 
HETATM   39  C2D ZID A 300       1.784  32.812 -11.688  1.00 23.83     0.198 C 
HETATM   40  C3D ZID A 300       2.028  34.066 -10.891  1.00 24.97     0.182 C 
BRANCH  38  41
HETATM   41  N1N ZID A 300      -0.042  31.827 -12.888  1.00 25.28    -0.336 N 
HETATM   42  C2N ZID A 300      -0.622  30.661 -12.499  1.00 22.44     0.111 A 
HETATM   43  C3N ZID A 300      -0.958  29.762 -13.438  1.00 25.89     0.056 A 
HETATM   44  C4N ZID A 300      -0.680  30.137 -14.767  1.00 26.60    -0.007 A 
HETATM   45  C5N ZID A 300      -0.187  31.361 -15.138  1.00 27.45     0.028 A 
HETATM   46  C6N ZID A 300       0.147  32.190 -14.138  1.00 24.23     0.094 A 
BRANCH  43  47
HETATM   47  C7N ZID A 300      -1.487  28.377 -13.041  1.00 28.02     0.251 C 
HETATM   48  O7N ZID A 300      -2.639  28.227 -12.591  1.00 26.84    -0.268 OA
HETATM   49  N7N ZID A 300      -0.635  27.378 -12.901  1.00 23.44    -0.366 N 
ATOM     50 2H7N ZID A 300       0.308  27.500 -13.269  1.00  0.00     0.159 HD
ATOM     51 1H7N ZID A 300      -0.987  26.458 -12.637  1.00  0.00     0.159 HD
ENDBRANCH  43  47
BRANCH  44  52
HETATM   52  C7Z ZID A 300      -1.407  29.384 -15.640  1.00 27.75     0.185 C 
BRANCH  52  53
HETATM   53  O7Z ZID A 300      -1.369  30.599 -16.575  1.00 23.71    -0.386 OA
ATOM     54  H7Z ZID A 300      -2.145  30.901 -16.120  1.00  0.00     0.210 HD
ENDBRANCH  52  53
BRANCH  52  55
HETATM   55  C4Z ZID A 300      -1.002  28.512 -16.756  1.00 23.40    -0.023 A 
HETATM   56  C3Z ZID A 300      -0.269  27.367 -16.552  1.00 23.67     0.027 A 
HETATM   57  C2Z ZID A 300      -0.082  26.530 -17.641  1.00 22.98     0.088 A 
HETATM   58  N1Z ZID A 300      -0.626  26.792 -18.856  1.00 25.57    -0.375 N 
HETATM   59  C6Z ZID A 300      -1.414  27.870 -19.069  1.00 26.04     0.088 A 
ATOM     60  H1Z ZID A 300      -0.434  26.158 -19.632  1.00  0.00     0.164 HD
HETATM   61  C5Z ZID A 300      -1.630  28.732 -18.017  1.00 24.83     0.027 A 
ENDBRANCH  52  55
ENDBRANCH  44  52
ENDBRANCH  38  41
BRANCH  39  62
HETATM   62  O2D ZID A 300       2.340  31.653 -10.992  1.00 23.60    -0.388 OA
ATOM     63  H2D ZID A 300       2.945  31.188 -11.558  1.00  0.00     0.210 HD
ENDBRANCH  39  62
BRANCH  40  64
HETATM   64  O3D ZID A 300       1.678  33.762  -9.505  1.00 26.13    -0.390 OA
ATOM     65  H3D ZID A 300       0.759  33.530  -9.442  1.00  0.00     0.210 HD
ENDBRANCH  40  64
ENDBRANCH  35  36
ENDBRANCH  34  35
ENDBRANCH   1  34
TORSDOF 19
ENDMDL
MODEL 3
REMARK VINA RESULT:     -11.0      2.703      4.683
REMARK  19 active torsions:
REMARK  status: ('A' for Active; 'I' for Inactive)
REMARK    1  A    between atoms: PA_1  and  O5B_4 
REMARK    2  A    between atoms: PA_1  and  O3_30 
REMARK    3  A    between atoms: O5B_4  and  C5B_5 
REMARK    4  A    between atoms: C5B_5  and  C4B_6 
REMARK    5  A    between atoms: C3B_8  and  O3B_9 
REMARK    6  A    between atoms: C2B_11  and  O2B_12 
REMARK    7  A    between atoms: C1B_14  and  N9A_15 
REMARK    8  A    between atoms: C6A_20  and  N6A_21 
REMARK    9  A    between atoms: O3_30  and  PN_31 
REMARK   10  A    between atoms: PN_31  and  O5D_34 
REMARK   11  A    between atoms: O5D_34  and  C5D_35 
REMARK   12  A    between atoms: C5D_35  and  C4D_36 
REMARK   13  A    between atoms: C3D_38  and  O3D_39 
REMARK   14  A    between atoms: C2D_41  and  O2D_42 
REMARK   15  A    between atoms: C1D_44  and  N1N_45 
REMARK   16  A    between atoms: C3N_47  and  C7N_48 
REMARK       I    between atoms: C7N_48  and  N7N_50 
REMARK   17  A    between atoms: C4N_53  and  C7Z_56 
REMARK   18  A    between atoms: C7Z_56  and  O7Z_57 
REMARK   19  A    between atoms: C7Z_56  and  C4Z_63 
ROOT
HETATM    1  PN  ZID A 300       3.488  36.250 -14.119  1.00 26.51     0.417 P 
HETATM    2  O1N ZID A 300       3.443  34.922 -14.802  1.00 30.48    -0.624 OA
HETATM    3  O2N ZID A 300       3.156  37.528 -14.836  1.00 28.40    -0.624 OA
ENDROOT
BRANCH   1   4
HETATM    4  O3  ZID A 300       4.949  36.287 -13.389  1.00 30.29    -0.180 OA
BRANCH   4   5
HETATM    5  PA  ZID A 300       6.379  36.796 -14.027  1.00 28.62     0.417 P 
HETATM    6  O1A ZID A 300       6.736  35.701 -15.000  1.00 28.37    -0.624 OA
HETATM    7  O2A ZID A 300       6.321  38.242 -14.413  1.00 30.19    -0.624 OA
BRANCH   5   8
HETATM    8  O5B ZID A 300       7.333  36.775 -12.752  1.00 29.52    -0.287 OA
BRANCH   8   9
HETATM    9  C5B ZID A 300       7.514  37.896 -11.908  1.00 27.76     0.216 C 
BRANCH   9  10
HETATM   10  C4B ZID A 300       7.452  37.279 -10.530  1.00 27.48     0.180 C 
HETATM   11  O4B ZID A 300       6.704  36.072 -10.603  1.00 27.81    -0.353 OA
HETATM   12  C1B ZID A 300       7.259  35.223  -9.637  1.00 28.20     0.262 C 
HETATM   13  C2B ZID A 300       8.772  35.402  -9.820  1.00 28.50     0.198 C 
HETATM   14  C3B ZID A 300       8.853  36.899  -9.997  1.00 25.42     0.182 C 
BRANCH  12  15
HETATM   15  N9A ZID A 300       6.907  33.808  -9.747  1.00 26.08    -0.297 N 
HETATM   16  C8A ZID A 300       6.844  32.927  -8.736  1.00 24.53     0.188 A 
HETATM   17  N7A ZID A 300       6.396  31.783  -9.232  1.00 23.35    -0.346 N 
HETATM   18  C5A ZID A 300       6.118  31.965 -10.551  1.00 25.38     0.122 A 
ATOM     19  H7A ZID A 300       6.280  30.912  -8.712  1.00  0.00     0.167 HD
HETATM   20  C6A ZID A 300       5.624  31.140 -11.550  1.00 23.71     0.131 A 
HETATM   21  C4A ZID A 300       6.426  33.258 -10.853  1.00 23.66     0.142 A 
HETATM   22  N1A ZID A 300       5.507  31.636 -12.786  1.00 27.06    -0.337 N 
HETATM   23  C2A ZID A 300       5.801  32.931 -13.049  1.00 25.81     0.183 A 
ATOM     24  H1A ZID A 300       5.191  31.029 -13.542  1.00  0.00     0.168 HD
HETATM   25  N3A ZID A 300       6.269  33.729 -12.098  1.00 26.02    -0.336 N 
ATOM     26  H3A ZID A 300       6.510  34.697 -12.314  1.00  0.00     0.168 HD
BRANCH  20  27
HETATM   27  N6A ZID A 300       5.289  29.852 -11.307  1.00 26.06    -0.383 N 
ATOM     28 2H6A ZID A 300       5.752  29.102 -11.820  1.00  0.00     0.157 HD
ATOM     29 1H6A ZID A 300       4.595  29.603 -10.603  1.00  0.00     0.157 HD
ENDBRANCH  20  27
ENDBRANCH  12  15
BRANCH  13  30
HETATM   30  O2B ZID A 300       9.503  34.936  -8.675  1.00 34.28    -0.388 OA
ATOM     31  H2B ZID A 300      10.372  34.622  -8.897  1.00  0.00     0.210 HD
ENDBRANCH  13  30
BRANCH  14  32
HETATM   32  O3B ZID A 300       9.007  37.496  -8.729  1.00 26.39    -0.390 OA
ATOM     33  H3B ZID A 300       8.524  38.313  -8.732  1.00  0.00     0.210 HD
ENDBRANCH  14  32
ENDBRANCH   9  10
ENDBRANCH   8   9
ENDBRANCH   5   8
ENDBRANCH   4   5
ENDBRANCH   1   4
BRANCH   1  34
HETATM   34  O5D ZID A 300       2.593  36.246 -12.809  1.00 27.38    -0.287 OA
BRANCH  34  35
HETATM   35  C5D ZID A 300       1.188  36.017 -12.828  1.00 26.32     0.216 C 
BRANCH  35  36
HETATM   36  C4D ZID A 300       0.837  34.992 -11.746  1.00 26.54     0.180 C 
HETATM   37  O4D ZID A 300      -0.080  34.056 -12.394  1.00 26.70    -0.353 OA
HETATM   38  C1D ZID A 300       0.343  32.770 -12.056  1.00 24.37     0.259 C 
HETATM   39  C2D ZID A 300       1.877  32.908 -12.011  1.00 23.83     0.198 C 
HETATM   40  C3D ZID A 300       2.067  34.194 -11.252  1.00 24.97     0.182 C 
BRANCH  38  41
HETATM   41  N1N ZID A 300       0.048  31.698 -12.978  1.00 25.28    -0.336 N 
HETATM   42  C2N ZID A 300      -0.593  30.578 -12.553  1.00 22.44     0.111 A 
HETATM   43  C3N ZID A 300      -0.918  29.638 -13.456  1.00 25.89     0.056 A 
HETATM   44  C4N ZID A 300      -0.563  29.924 -14.788  1.00 26.60    -0.007 A 
HETATM   45  C5N ZID A 300      -0.008  31.107 -15.203  1.00 27.45     0.028 A 
HETATM   46  C6N ZID A 300       0.310  31.981 -14.236  1.00 24.23     0.094 A 
BRANCH  43  47
HETATM   47  C7N ZID A 300      -1.517  28.298 -13.008  1.00 28.02     0.251 C 
HETATM   48  O7N ZID A 300      -2.683  28.221 -12.577  1.00 26.84    -0.268 OA
HETATM   49  N7N ZID A 300      -0.714  27.270 -12.804  1.00 23.44    -0.366 N 
ATOM     50 2H7N ZID A 300       0.241  27.333 -13.157  1.00  0.00     0.159 HD
ATOM     51 1H7N ZID A 300      -1.113  26.379 -12.506  1.00  0.00     0.159 HD
ENDBRANCH  43  47
BRANCH  44  52
HETATM   52  C7Z ZID A 300      -1.275  29.148 -15.652  1.00 27.75     0.185 C 
BRANCH  52  53
HETATM   53  O7Z ZID A 300      -1.196  30.326 -16.631  1.00 23.71    -0.386 OA
ATOM     54  H7Z ZID A 300      -2.142  30.260 -16.697  1.00  0.00     0.210 HD
ENDBRANCH  52  53
BRANCH  52  55
HETATM   55  C4Z ZID A 300      -0.851  28.230 -16.723  1.00 23.40    -0.023 A 
HETATM   56  C3Z ZID A 300      -0.186  27.058 -16.451  1.00 23.67     0.027 A 
HETATM   57  C2Z ZID A 300       0.021  26.185 -17.509  1.00 22.98     0.088 A 
HETATM   58  N1Z ZID A 300      -0.442  26.441 -18.759  1.00 25.57    -0.375 N 
HETATM   59  C6Z ZID A 300      -1.165  27.548 -19.040  1.00 26.04     0.088 A 
ATOM     60  H1Z ZID A 300      -0.238  25.779 -19.507  1.00  0.00     0.164 HD
HETATM   61  C5Z ZID A 300      -1.397  28.446 -18.022  1.00 24.83     0.027 A 
ENDBRANCH  52  55
ENDBRANCH  44  52
ENDBRANCH  38  41
BRANCH  39  62
HETATM   62  O2D ZID A 300       2.645  31.832 -11.386  1.00 23.60    -0.388 OA
ATOM     63  H2D ZID A 300       3.343  31.547 -11.964  1.00  0.00     0.210 HD
ENDBRANCH  39  62
BRANCH  40  64
HETATM   64  O3D ZID A 300       1.925  33.874  -9.833  1.00 26.13    -0.390 OA
ATOM     65  H3D ZID A 300       1.628  32.977  -9.727  1.00  0.00     0.210 HD
ENDBRANCH  40  64
ENDBRANCH  35  36
ENDBRANCH  34  35
ENDBRANCH   1  34
TORSDOF 19
ENDMDL
MODEL 4
REMARK VINA RESULT:     -10.6      1.651      2.382
REMARK  19 active torsions:
REMARK  status: ('A' for Active; 'I' for Inactive)
REMARK    1  A    between atoms: PA_1  and  O5B_4 
REMARK    2  A    between atoms: PA_1  and  O3_30 
REMARK    3  A    between atoms: O5B_4  and  C5B_5 
REMARK    4  A    between atoms: C5B_5  and  C4B_6 
REMARK    5  A    between atoms: C3B_8  and  O3B_9 
REMARK    6  A    between atoms: C2B_11  and  O2B_12 
REMARK    7  A    between atoms: C1B_14  and  N9A_15 
REMARK    8  A    between atoms: C6A_20  and  N6A_21 
REMARK    9  A    between atoms: O3_30  and  PN_31 
REMARK   10  A    between atoms: PN_31  and  O5D_34 
REMARK   11  A    between atoms: O5D_34  and  C5D_35 
REMARK   12  A    between atoms: C5D_35  and  C4D_36 
REMARK   13  A    between atoms: C3D_38  and  O3D_39 
REMARK   14  A    between atoms: C2D_41  and  O2D_42 
REMARK   15  A    between atoms: C1D_44  and  N1N_45 
REMARK   16  A    between atoms: C3N_47  and  C7N_48 
REMARK       I    between atoms: C7N_48  and  N7N_50 
REMARK   17  A    between atoms: C4N_53  and  C7Z_56 
REMARK   18  A    between atoms: C7Z_56  and  O7Z_57 
REMARK   19  A    between atoms: C7Z_56  and  C4Z_63 
ROOT
HETATM    1  PN  ZID A 300       1.087  33.676 -10.963  1.00 26.51     0.417 P 
HETATM    2  O1N ZID A 300       0.024  34.231 -11.855  1.00 30.48    -0.624 OA
HETATM    3  O2N ZID A 300       1.811  34.527  -9.959  1.00 28.40    -0.624 OA
ENDROOT
BRANCH   1   4
HETATM    4  O3  ZID A 300       2.094  32.878 -11.972  1.00 30.29    -0.180 OA
BRANCH   4   5
HETATM    5  PA  ZID A 300       2.921  33.492 -13.257  1.00 28.62     0.417 P 
HETATM    6  O1A ZID A 300       2.415  32.676 -14.420  1.00 28.37    -0.624 OA
HETATM    7  O2A ZID A 300       2.913  34.989 -13.248  1.00 30.19    -0.624 OA
BRANCH   5   8
HETATM    8  O5B ZID A 300       4.423  33.112 -12.890  1.00 29.52    -0.287 OA
BRANCH   8   9
HETATM    9  C5B ZID A 300       4.773  31.914 -12.223  1.00 27.76     0.216 C 
BRANCH   9  10
HETATM   10  C4B ZID A 300       6.278  32.018 -12.138  1.00 27.48     0.180 C 
HETATM   11  O4B ZID A 300       6.655  33.376 -12.327  1.00 27.81    -0.353 OA
HETATM   12  C1B ZID A 300       7.808  33.561 -11.554  1.00 28.20     0.262 C 
HETATM   13  C2B ZID A 300       7.478  32.854 -10.232  1.00 28.50     0.198 C 
HETATM   14  C3B ZID A 300       6.814  31.600 -10.748  1.00 25.42     0.182 C 
BRANCH  12  15
HETATM   15  N9A ZID A 300       8.191  34.947 -11.295  1.00 26.08    -0.297 N 
HETATM   16  C8A ZID A 300       8.667  35.434 -10.137  1.00 24.53     0.188 A 
HETATM   17  N7A ZID A 300       8.987  36.704 -10.340  1.00 23.35    -0.346 N 
HETATM   18  C5A ZID A 300       8.768  36.999 -11.651  1.00 25.38     0.122 A 
ATOM     19  H7A ZID A 300       9.338  37.352  -9.634  1.00  0.00     0.167 HD
HETATM   20  C6A ZID A 300       8.931  38.143 -12.417  1.00 23.71     0.131 A 
HETATM   21  C4A ZID A 300       8.286  35.869 -12.243  1.00 23.66     0.142 A 
HETATM   22  N1A ZID A 300       8.569  38.105 -13.703  1.00 27.06    -0.337 N 
HETATM   23  C2A ZID A 300       8.116  36.961 -14.267  1.00 25.81     0.183 A 
ATOM     24  H1A ZID A 300       8.637  38.951 -14.268  1.00  0.00     0.168 HD
HETATM   25  N3A ZID A 300       7.961  35.860 -13.543  1.00 26.02    -0.336 N 
ATOM     26  H3A ZID A 300       7.595  35.010 -13.973  1.00  0.00     0.168 HD
BRANCH  20  27
HETATM   27  N6A ZID A 300       9.416  39.289 -11.887  1.00 26.06    -0.383 N 
ATOM     28 2H6A ZID A 300       9.549  39.365 -10.879  1.00  0.00     0.157 HD
ATOM     29 1H6A ZID A 300       9.675  40.082 -12.473  1.00  0.00     0.157 HD
ENDBRANCH  20  27
ENDBRANCH  12  15
BRANCH  13  30
HETATM   30  O2B ZID A 300       8.662  32.582  -9.466  1.00 34.28    -0.388 OA
ATOM     31  H2B ZID A 300       8.671  31.704  -9.103  1.00  0.00     0.210 HD
ENDBRANCH  13  30
BRANCH  14  32
HETATM   32  O3B ZID A 300       7.803  30.615 -10.947  1.00 26.39    -0.390 OA
ATOM     33  H3B ZID A 300       7.362  29.798 -11.149  1.00  0.00     0.210 HD
ENDBRANCH  14  32
ENDBRANCH   9  10
ENDBRANCH   8   9
ENDBRANCH   5   8
ENDBRANCH   4   5
ENDBRANCH   1   4
BRANCH   1  34
HETATM   34  O5D ZID A 300       0.552  32.419 -10.156  1.00 27.38    -0.287 OA
BRANCH  34  35
HETATM   35  C5D ZID A 300       1.155  31.954  -8.952  1.00 26.32     0.216 C 
BRANCH  35  36
HETATM   36  C4D ZID A 300       1.306  30.432  -9.029  1.00 26.54     0.180 C 
HETATM   37  O4D ZID A 300       0.319  30.002 -10.018  1.00 26.70    -0.353 OA
HETATM   38  C1D ZID A 300       0.959  29.099 -10.868  1.00 24.37     0.259 C 
HETATM   39  C2D ZID A 300       2.392  29.661 -10.958  1.00 23.83     0.198 C 
HETATM   40  C3D ZID A 300       2.704  29.990  -9.523  1.00 24.97     0.182 C 
BRANCH  38  41
HETATM   41  N1N ZID A 300       0.471  28.984 -12.222  1.00 25.28    -0.336 N 
HETATM   42  C2N ZID A 300      -0.032  30.067 -12.869  1.00 22.44     0.111 A 
HETATM   43  C3N ZID A 300      -0.405  29.937 -14.153  1.00 25.89     0.056 A 
HETATM   44  C4N ZID A 300      -0.219  28.659 -14.714  1.00 26.60    -0.007 A 
HETATM   45  C5N ZID A 300       0.384  27.612 -14.069  1.00 27.45     0.028 A 
HETATM   46  C6N ZID A 300       0.702  27.816 -12.781  1.00 24.23     0.094 A 
BRANCH  43  47
HETATM   47  C7N ZID A 300      -1.105  31.091 -14.885  1.00 28.02     0.251 C 
HETATM   48  O7N ZID A 300      -2.314  31.036 -15.176  1.00 26.84    -0.268 OA
HETATM   49  N7N ZID A 300      -0.371  32.023 -15.466  1.00 23.44    -0.366 N 
ATOM     50 2H7N ZID A 300       0.619  32.069 -15.227  1.00  0.00     0.159 HD
ATOM     51 1H7N ZID A 300      -0.836  32.790 -15.953  1.00  0.00     0.159 HD
ENDBRANCH  43  47
BRANCH  44  52
HETATM   52  C7Z ZID A 300      -0.228  28.727 -16.075  1.00 27.75     0.185 C 
BRANCH  52  53
HETATM   53  O7Z ZID A 300       1.274  28.423 -16.008  1.00 23.71    -0.386 OA
ATOM     54  H7Z ZID A 300       1.258  28.824 -15.147  1.00  0.00     0.210 HD
ENDBRANCH  52  53
BRANCH  52  55
HETATM   55  C4Z ZID A 300      -0.392  27.689 -17.108  1.00 23.40    -0.023 A 
HETATM   56  C3Z ZID A 300       0.069  26.407 -16.926  1.00 23.67     0.027 A 
HETATM   57  C2Z ZID A 300      -0.281  25.465 -17.882  1.00 22.98     0.088 A 
HETATM   58  N1Z ZID A 300      -1.077  25.768 -18.938  1.00 25.57    -0.375 N 
HETATM   59  C6Z ZID A 300      -1.608  27.000 -19.102  1.00 26.04     0.088 A 
ATOM     60  H1Z ZID A 300      -1.282  25.044 -19.627  1.00  0.00     0.164 HD
HETATM   61  C5Z ZID A 300      -1.290  27.971 -18.179  1.00 24.83     0.027 A 
ENDBRANCH  52  55
ENDBRANCH  44  52
ENDBRANCH  38  41
BRANCH  39  62
HETATM   62  O2D ZID A 300       3.432  28.800 -11.518  1.00 23.60    -0.388 OA
ATOM     63  H2D ZID A 300       3.303  27.902 -11.238  1.00  0.00     0.210 HD
ENDBRANCH  39  62
BRANCH  40  64
HETATM   64  O3D ZID A 300       3.096  28.740  -8.876  1.00 26.13    -0.390 OA
ATOM     65  H3D ZID A 300       3.710  28.265  -9.425  1.00  0.00     0.210 HD
ENDBRANCH  40  64
ENDBRANCH  35  36
ENDBRANCH  34  35
ENDBRANCH   1  34
TORSDOF 19
ENDMDL
MODEL 5
REMARK VINA RESULT:     -10.6      3.593      5.646
REMARK  19 active torsions:
REMARK  status: ('A' for Active; 'I' for Inactive)
REMARK    1  A    between atoms: PA_1  and  O5B_4 
REMARK    2  A    between atoms: PA_1  and  O3_30 
REMARK    3  A    between atoms: O5B_4  and  C5B_5 
REMARK    4  A    between atoms: C5B_5  and  C4B_6 
REMARK    5  A    between atoms: C3B_8  and  O3B_9 
REMARK    6  A    between atoms: C2B_11  and  O2B_12 
REMARK    7  A    between atoms: C1B_14  and  N9A_15 
REMARK    8  A    between atoms: C6A_20  and  N6A_21 
REMARK    9  A    between atoms: O3_30  and  PN_31 
REMARK   10  A    between atoms: PN_31  and  O5D_34 
REMARK   11  A    between atoms: O5D_34  and  C5D_35 
REMARK   12  A    between atoms: C5D_35  and  C4D_36 
REMARK   13  A    between atoms: C3D_38  and  O3D_39 
REMARK   14  A    between atoms: C2D_41  and  O2D_42 
REMARK   15  A    between atoms: C1D_44  and  N1N_45 
REMARK   16  A    between atoms: C3N_47  and  C7N_48 
REMARK       I    between atoms: C7N_48  and  N7N_50 
REMARK   17  A    between atoms: C4N_53  and  C7Z_56 
REMARK   18  A    between atoms: C7Z_56  and  O7Z_57 
REMARK   19  A    between atoms: C7Z_56  and  C4Z_63 
ROOT
HETATM    1  PN  ZID A 300       5.209  27.493  -7.524  1.00 26.51     0.417 P 
HETATM    2  O1N ZID A 300       5.717  28.038  -6.229  1.00 30.48    -0.624 OA
HETATM    3  O2N ZID A 300       5.743  26.222  -8.120  1.00 28.40    -0.624 OA
ENDROOT
BRANCH   1   4
HETATM    4  O3  ZID A 300       5.270  28.759  -8.554  1.00 30.29    -0.180 OA
BRANCH   4   5
HETATM    5  PA  ZID A 300       6.511  29.184  -9.550  1.00 28.62     0.417 P 
HETATM    6  O1A ZID A 300       7.615  29.557  -8.592  1.00 28.37    -0.624 OA
HETATM    7  O2A ZID A 300       6.692  28.189 -10.654  1.00 30.19    -0.624 OA
BRANCH   5   8
HETATM    8  O5B ZID A 300       5.919  30.469 -10.281  1.00 29.52    -0.287 OA
BRANCH   8   9
HETATM    9  C5B ZID A 300       5.101  30.389 -11.433  1.00 27.76     0.216 C 
BRANCH   9  10
HETATM   10  C4B ZID A 300       5.661  31.489 -12.306  1.00 27.48     0.180 C 
HETATM   11  O4B ZID A 300       4.588  32.114 -12.998  1.00 27.81    -0.353 OA
HETATM   12  C1B ZID A 300       4.968  33.454 -13.154  1.00 28.20     0.262 C 
HETATM   13  C2B ZID A 300       5.548  33.830 -11.784  1.00 28.50     0.198 C 
HETATM   14  C3B ZID A 300       6.358  32.593 -11.478  1.00 25.42     0.182 C 
BRANCH  12  15
HETATM   15  N9A ZID A 300       3.902  34.386 -13.517  1.00 26.08    -0.297 N 
HETATM   16  C8A ZID A 300       3.963  35.323 -14.477  1.00 24.53     0.188 A 
HETATM   17  N7A ZID A 300       2.766  35.887 -14.560  1.00 23.35    -0.346 N 
HETATM   18  C5A ZID A 300       1.933  35.257 -13.688  1.00 25.38     0.122 A 
ATOM     19  H7A ZID A 300       2.513  36.662 -15.172  1.00  0.00     0.167 HD
HETATM   20  C6A ZID A 300       0.595  35.410 -13.360  1.00 23.71     0.131 A 
HETATM   21  C4A ZID A 300       2.664  34.296 -13.055  1.00 23.66     0.142 A 
HETATM   22  N1A ZID A 300       0.080  34.633 -12.402  1.00 27.06    -0.337 N 
HETATM   23  C2A ZID A 300       0.826  33.672 -11.808  1.00 25.81     0.183 A 
ATOM     24  H1A ZID A 300      -0.889  34.765 -12.115  1.00  0.00     0.168 HD
HETATM   25  N3A ZID A 300       2.107  33.515 -12.118  1.00 26.02    -0.336 N 
ATOM     26  H3A ZID A 300       2.665  32.803 -11.646  1.00  0.00     0.168 HD
BRANCH  20  27
HETATM   27  N6A ZID A 300      -0.183  36.338 -13.964  1.00 26.06    -0.383 N 
ATOM     28 2H6A ZID A 300      -1.156  36.448 -13.678  1.00  0.00     0.157 HD
ATOM     29 1H6A ZID A 300       0.183  36.953 -14.691  1.00  0.00     0.157 HD
ENDBRANCH  20  27
ENDBRANCH  12  15
BRANCH  13  30
HETATM   30  O2B ZID A 300       6.353  35.018 -11.857  1.00 34.28    -0.388 OA
ATOM     31  H2B ZID A 300       7.056  34.947 -12.492  1.00  0.00     0.210 HD
ENDBRANCH  13  30
BRANCH  14  32
HETATM   32  O3B ZID A 300       7.658  32.764 -11.997  1.00 26.39    -0.390 OA
ATOM     33  H3B ZID A 300       7.595  33.330 -12.757  1.00  0.00     0.210 HD
ENDBRANCH  14  32
ENDBRANCH   9  10
ENDBRANCH   8   9
ENDBRANCH   5   8
ENDBRANCH   4   5
ENDBRANCH   1   4
BRANCH   1  34
HETATM   34  O5D ZID A 300       3.632  27.322  -7.489  1.00 27.38    -0.287 OA
BRANCH  34  35
HETATM   35  C5D ZID A 300       2.825  27.300  -8.662  1.00 26.32     0.216 C 
BRANCH  35  36
HETATM   36  C4D ZID A 300       2.025  28.603  -8.739  1.00 26.54     0.180 C 
HETATM   37  O4D ZID A 300       2.066  28.991 -10.148  1.00 26.70    -0.353 OA
HETATM   38  C1D ZID A 300       0.768  29.351 -10.511  1.00 24.37     0.259 C 
HETATM   39  C2D ZID A 300      -0.105  28.379  -9.693  1.00 23.83     0.198 C 
HETATM   40  C3D ZID A 300       0.542  28.424  -8.335  1.00 24.97     0.182 C 
BRANCH  38  41
HETATM   41  N1N ZID A 300       0.385  29.192 -11.894  1.00 25.28    -0.336 N 
HETATM   42  C2N ZID A 300      -0.118  30.240 -12.597  1.00 22.44     0.111 A 
HETATM   43  C3N ZID A 300      -0.390  30.073 -13.901  1.00 25.89     0.056 A 
HETATM   44  C4N ZID A 300      -0.105  28.796 -14.424  1.00 26.60    -0.007 A 
HETATM   45  C5N ZID A 300       0.496  27.788 -13.716  1.00 27.45     0.028 A 
HETATM   46  C6N ZID A 300       0.710  28.027 -12.413  1.00 24.23     0.094 A 
BRANCH  43  47
HETATM   47  C7N ZID A 300      -1.086  31.181 -14.704  1.00 28.02     0.251 C 
HETATM   48  O7N ZID A 300      -2.226  31.020 -15.178  1.00 26.84    -0.268 OA
HETATM   49  N7N ZID A 300      -0.372  32.202 -15.143  1.00 23.44    -0.366 N 
ATOM     50 2H7N ZID A 300       0.561  32.334 -14.755  1.00  0.00     0.159 HD
ATOM     51 1H7N ZID A 300      -0.835  32.938 -15.677  1.00  0.00     0.159 HD
ENDBRANCH  43  47
BRANCH  44  52
HETATM   52  C7Z ZID A 300      -0.017  28.842 -15.783  1.00 27.75     0.185 C 
BRANCH  52  53
HETATM   53  O7Z ZID A 300       1.220  27.948 -15.641  1.00 23.71    -0.386 OA
ATOM     54  H7Z ZID A 300       0.700  27.263 -16.044  1.00  0.00     0.210 HD
ENDBRANCH  52  53
BRANCH  52  55
HETATM   55  C4Z ZID A 300      -0.543  27.950 -16.830  1.00 23.40    -0.023 A 
HETATM   56  C3Z ZID A 300      -1.290  28.426 -17.881  1.00 23.67     0.027 A 
HETATM   57  C2Z ZID A 300      -1.595  27.535 -18.899  1.00 22.98     0.088 A 
HETATM   58  N1Z ZID A 300      -1.149  26.253 -18.895  1.00 25.57    -0.375 N 
HETATM   59  C6Z ZID A 300      -0.350  25.777 -17.915  1.00 26.04     0.088 A 
ATOM     60  H1Z ZID A 300      -1.426  25.631 -19.655  1.00  0.00     0.164 HD
HETATM   61  C5Z ZID A 300      -0.019  26.625 -16.881  1.00 24.83     0.027 A 
ENDBRANCH  52  55
ENDBRANCH  44  52
ENDBRANCH  38  41
BRANCH  39  62
HETATM   62  O2D ZID A 300      -1.534  28.667  -9.584  1.00 23.60    -0.388 OA
ATOM     63  H2D ZID A 300      -2.038  28.018 -10.061  1.00  0.00     0.210 HD
ENDBRANCH  39  62
BRANCH  40  64
HETATM   64  O3D ZID A 300       0.050  29.629  -7.670  1.00 26.13    -0.390 OA
ATOM     65  H3D ZID A 300       0.755  30.051  -7.192  1.00  0.00     0.210 HD
ENDBRANCH  40  64
ENDBRANCH  35  36
ENDBRANCH  34  35
ENDBRANCH   1  34
TORSDOF 19
ENDMDL
MODEL 6
REMARK VINA RESULT:     -10.6      2.738      4.380
REMARK  19 active torsions:
REMARK  status: ('A' for Active; 'I' for Inactive)
REMARK    1  A    between atoms: PA_1  and  O5B_4 
REMARK    2  A    between atoms: PA_1  and  O3_30 
REMARK    3  A    between atoms: O5B_4  and  C5B_5 
REMARK    4  A    between atoms: C5B_5  and  C4B_6 
REMARK    5  A    between atoms: C3B_8  and  O3B_9 
REMARK    6  A    between atoms: C2B_11  and  O2B_12 
REMARK    7  A    between atoms: C1B_14  and  N9A_15 
REMARK    8  A    between atoms: C6A_20  and  N6A_21 
REMARK    9  A    between atoms: O3_30  and  PN_31 
REMARK   10  A    between atoms: PN_31  and  O5D_34 
REMARK   11  A    between atoms: O5D_34  and  C5D_35 
REMARK   12  A    between atoms: C5D_35  and  C4D_36 
REMARK   13  A    between atoms: C3D_38  and  O3D_39 
REMARK   14  A    between atoms: C2D_41  and  O2D_42 
REMARK   15  A    between atoms: C1D_44  and  N1N_45 
REMARK   16  A    between atoms: C3N_47  and  C7N_48 
REMARK       I    between atoms: C7N_48  and  N7N_50 
REMARK   17  A    between atoms: C4N_53  and  C7Z_56 
REMARK   18  A    between atoms: C7Z_56  and  O7Z_57 
REMARK   19  A    between atoms: C7Z_56  and  C4Z_63 
ROOT
HETATM    1  PN  ZID A 300       1.821  36.155 -12.388  1.00 26.51     0.417 P 
HETATM    2  O1N ZID A 300       1.143  36.712 -13.597  1.00 30.48    -0.624 OA
HETATM    3  O2N ZID A 300       1.915  36.923 -11.100  1.00 28.40    -0.624 OA
ENDROOT
BRANCH   1   4
HETATM    4  O3  ZID A 300       3.271  35.636 -12.933  1.00 30.29    -0.180 OA
BRANCH   4   5
HETATM    5  PA  ZID A 300       3.668  35.199 -14.470  1.00 28.62     0.417 P 
HETATM    6  O1A ZID A 300       3.039  33.837 -14.618  1.00 28.37    -0.624 OA
HETATM    7  O2A ZID A 300       3.428  36.317 -15.436  1.00 30.19    -0.624 OA
BRANCH   5   8
HETATM    8  O5B ZID A 300       5.256  35.099 -14.382  1.00 29.52    -0.287 OA
BRANCH   8   9
HETATM    9  C5B ZID A 300       5.928  33.952 -13.897  1.00 27.76     0.216 C 
BRANCH   9  10
HETATM   10  C4B ZID A 300       6.437  34.419 -12.553  1.00 27.48     0.180 C 
HETATM   11  O4B ZID A 300       6.253  33.373 -11.607  1.00 27.81    -0.353 OA
HETATM   12  C1B ZID A 300       7.310  33.497 -10.695  1.00 28.20     0.262 C 
HETATM   13  C2B ZID A 300       8.532  33.753 -11.586  1.00 28.50     0.198 C 
HETATM   14  C3B ZID A 300       7.951  34.731 -12.578  1.00 25.42     0.182 C 
BRANCH  12  15
HETATM   15  N9A ZID A 300       7.554  32.342  -9.833  1.00 26.08    -0.297 N 
HETATM   16  C8A ZID A 300       8.104  32.369  -8.609  1.00 24.53     0.188 A 
HETATM   17  N7A ZID A 300       8.058  31.137  -8.123  1.00 23.35    -0.346 N 
HETATM   18  C5A ZID A 300       7.420  30.343  -9.026  1.00 25.38     0.122 A 
ATOM     19  H7A ZID A 300       8.438  30.835  -7.226  1.00  0.00     0.167 HD
HETATM   20  C6A ZID A 300       7.082  28.999  -9.049  1.00 23.71     0.131 A 
HETATM   21  C4A ZID A 300       7.088  31.127 -10.090  1.00 23.66     0.142 A 
HETATM   22  N1A ZID A 300       6.477  28.512 -10.138  1.00 27.06    -0.337 N 
HETATM   23  C2A ZID A 300       6.141  29.322 -11.169  1.00 25.81     0.183 A 
ATOM     24  H1A ZID A 300       6.265  27.516 -10.192  1.00  0.00     0.168 HD
HETATM   25  N3A ZID A 300       6.456  30.612 -11.153  1.00 26.02    -0.336 N 
ATOM     26  H3A ZID A 300       6.219  31.207 -11.947  1.00  0.00     0.168 HD
BRANCH  20  27
HETATM   27  N6A ZID A 300       7.374  28.174  -8.017  1.00 26.06    -0.383 N 
ATOM     28 2H6A ZID A 300       8.132  27.497  -8.107  1.00  0.00     0.157 HD
ATOM     29 1H6A ZID A 300       6.868  28.223  -7.133  1.00  0.00     0.157 HD
ENDBRANCH  20  27
ENDBRANCH  12  15
BRANCH  13  30
HETATM   30  O2B ZID A 300       9.628  34.303 -10.838  1.00 34.28    -0.388 OA
ATOM     31  H2B ZID A 300      10.463  34.202 -11.280  1.00  0.00     0.210 HD
ENDBRANCH  13  30
BRANCH  14  32
HETATM   32  O3B ZID A 300       8.129  36.039 -12.080  1.00 26.39    -0.390 OA
ATOM     33  H3B ZID A 300       7.272  36.442 -12.013  1.00  0.00     0.210 HD
ENDBRANCH  14  32
ENDBRANCH   9  10
ENDBRANCH   8   9
ENDBRANCH   5   8
ENDBRANCH   4   5
ENDBRANCH   1   4
BRANCH   1  34
HETATM   34  O5D ZID A 300       1.219  34.739 -12.000  1.00 27.38    -0.287 OA
BRANCH  34  35
HETATM   35  C5D ZID A 300       0.844  34.390 -10.672  1.00 26.32     0.216 C 
BRANCH  35  36
HETATM   36  C4D ZID A 300       1.595  33.121 -10.260  1.00 26.54     0.180 C 
HETATM   37  O4D ZID A 300       0.795  32.018 -10.790  1.00 26.70    -0.353 OA
HETATM   38  C1D ZID A 300       1.678  31.131 -11.406  1.00 24.37     0.259 C 
HETATM   39  C2D ZID A 300       2.746  32.065 -12.009  1.00 23.83     0.198 C 
HETATM   40  C3D ZID A 300       3.009  33.029 -10.883  1.00 24.97     0.182 C 
BRANCH  38  41
HETATM   41  N1N ZID A 300       1.174  30.320 -12.489  1.00 25.28    -0.336 N 
HETATM   42  C2N ZID A 300       0.893  29.005 -12.295  1.00 22.44     0.111 A 
HETATM   43  C3N ZID A 300       0.355  28.304 -13.306  1.00 25.89     0.056 A 
HETATM   44  C4N ZID A 300       0.117  29.027 -14.491  1.00 26.60    -0.007 A 
HETATM   45  C5N ZID A 300       0.316  30.376 -14.625  1.00 27.45     0.028 A 
HETATM   46  C6N ZID A 300       0.882  30.997 -13.579  1.00 24.23     0.094 A 
BRANCH  43  47
HETATM   47  C7N ZID A 300       0.147  26.787 -13.182  1.00 28.02     0.251 C 
HETATM   48  O7N ZID A 300       0.771  25.987 -13.903  1.00 26.84    -0.268 OA
HETATM   49  N7N ZID A 300      -0.899  26.334 -12.516  1.00 23.44    -0.366 N 
ATOM     50 2H7N ZID A 300      -1.410  26.989 -11.926  1.00  0.00     0.159 HD
ATOM     51 1H7N ZID A 300      -1.037  25.326 -12.434  1.00  0.00     0.159 HD
ENDBRANCH  43  47
BRANCH  44  52
HETATM   52  C7Z ZID A 300      -0.780  28.372 -15.281  1.00 27.75     0.185 C 
BRANCH  52  53
HETATM   53  O7Z ZID A 300      -1.185  29.754 -15.807  1.00 23.71    -0.386 OA
ATOM     54  H7Z ZID A 300      -2.054  29.562 -15.476  1.00  0.00     0.210 HD
ENDBRANCH  52  53
BRANCH  52  55
HETATM   55  C4Z ZID A 300      -0.686  27.873 -16.664  1.00 23.40    -0.023 A 
HETATM   56  C3Z ZID A 300      -0.208  26.616 -16.950  1.00 23.67     0.027 A 
HETATM   57  C2Z ZID A 300      -0.316  26.179 -18.261  1.00 22.98     0.088 A 
HETATM   58  N1Z ZID A 300      -0.902  26.929 -19.228  1.00 25.57    -0.375 N 
HETATM   59  C6Z ZID A 300      -1.449  28.136 -18.961  1.00 26.04     0.088 A 
ATOM     60  H1Z ZID A 300      -0.931  26.572 -20.183  1.00  0.00     0.164 HD
HETATM   61  C5Z ZID A 300      -1.368  28.614 -17.673  1.00 24.83     0.027 A 
ENDBRANCH  52  55
ENDBRANCH  44  52
ENDBRANCH  38  41
BRANCH  39  62
HETATM   62  O2D ZID A 300       3.999  31.469 -12.468  1.00 23.60    -0.388 OA
ATOM     63  H2D ZID A 300       4.657  31.517 -11.784  1.00  0.00     0.210 HD
ENDBRANCH  39  62
BRANCH  40  64
HETATM   64  O3D ZID A 300       3.925  32.364  -9.960  1.00 26.13    -0.390 OA
ATOM     65  H3D ZID A 300       4.063  32.902  -9.189  1.00  0.00     0.210 HD
ENDBRANCH  40  64
ENDBRANCH  35  36
ENDBRANCH  34  35
ENDBRANCH   1  34
TORSDOF 19
ENDMDL
MODEL 7
REMARK VINA RESULT:     -10.6      1.515      2.532
REMARK  19 active torsions:
REMARK  status: ('A' for Active; 'I' for Inactive)
REMARK    1  A    between atoms: PA_1  and  O5B_4 
REMARK    2  A    between atoms: PA_1  and  O3_30 
REMARK    3  A    between atoms: O5B_4  and  C5B_5 
REMARK    4  A    between atoms: C5B_5  and  C4B_6 
REMARK    5  A    between atoms: C3B_8  and  O3B_9 
REMARK    6  A    between atoms: C2B_11  and  O2B_12 
REMARK    7  A    between atoms: C1B_14  and  N9A_15 
REMARK    8  A    between atoms: C6A_20  and  N6A_21 
REMARK    9  A    between atoms: O3_30  and  PN_31 
REMARK   10  A    between atoms: PN_31  and  O5D_34 
REMARK   11  A    between atoms: O5D_34  and  C5D_35 
REMARK   12  A    between atoms: C5D_35  and  C4D_36 
REMARK   13  A    between atoms: C3D_38  and  O3D_39 
REMARK   14  A    between atoms: C2D_41  and  O2D_42 
REMARK   15  A    between atoms: C1D_44  and  N1N_45 
REMARK   16  A    between atoms: C3N_47  and  C7N_48 
REMARK       I    between atoms: C7N_48  and  N7N_50 
REMARK   17  A    between atoms: C4N_53  and  C7Z_56 
REMARK   18  A    between atoms: C7Z_56  and  O7Z_57 
REMARK   19  A    between atoms: C7Z_56  and  C4Z_63 
ROOT
HETATM    1  PN  ZID A 300       0.898  34.301 -11.279  1.00 26.51     0.417 P 
HETATM    2  O1N ZID A 300      -0.146  34.419 -12.341  1.00 30.48    -0.624 OA
HETATM    3  O2N ZID A 300       1.077  35.346 -10.215  1.00 28.40    -0.624 OA
ENDROOT
BRANCH   1   4
HETATM    4  O3  ZID A 300       2.276  33.974 -12.093  1.00 30.29    -0.180 OA
BRANCH   4   5
HETATM    5  PA  ZID A 300       2.634  34.355 -13.655  1.00 28.62     0.417 P 
HETATM    6  O1A ZID A 300       2.385  33.065 -14.395  1.00 28.37    -0.624 OA
HETATM    7  O2A ZID A 300       2.014  35.657 -14.055  1.00 30.19    -0.624 OA
BRANCH   5   8
HETATM    8  O5B ZID A 300       4.190  34.681 -13.563  1.00 29.52    -0.287 OA
BRANCH   8   9
HETATM    9  C5B ZID A 300       4.875  35.445 -14.538  1.00 27.76     0.216 C 
BRANCH   9  10
HETATM   10  C4B ZID A 300       5.532  36.521 -13.705  1.00 27.48     0.180 C 
HETATM   11  O4B ZID A 300       5.882  35.971 -12.441  1.00 27.81    -0.353 OA
HETATM   12  C1B ZID A 300       7.044  36.645 -12.043  1.00 28.20     0.262 C 
HETATM   13  C2B ZID A 300       7.896  36.688 -13.318  1.00 28.50     0.198 C 
HETATM   14  C3B ZID A 300       6.844  37.034 -14.343  1.00 25.42     0.182 C 
BRANCH  12  15
HETATM   15  N9A ZID A 300       7.803  36.031 -10.956  1.00 26.08    -0.297 N 
HETATM   16  C8A ZID A 300       8.476  36.682  -9.994  1.00 24.53     0.188 A 
HETATM   17  N7A ZID A 300       8.942  35.774  -9.148  1.00 23.35    -0.346 N 
HETATM   18  C5A ZID A 300       8.505  34.549  -9.550  1.00 25.38     0.122 A 
ATOM     19  H7A ZID A 300       9.529  35.961  -8.335  1.00  0.00     0.167 HD
HETATM   20  C6A ZID A 300       8.667  33.264  -9.056  1.00 23.71     0.131 A 
HETATM   21  C4A ZID A 300       7.768  34.735 -10.681  1.00 23.66     0.142 A 
HETATM   22  N1A ZID A 300       8.126  32.247  -9.733  1.00 27.06    -0.337 N 
HETATM   23  C2A ZID A 300       7.380  32.467 -10.842  1.00 25.81     0.183 A 
ATOM     24  H1A ZID A 300       8.276  31.292  -9.411  1.00  0.00     0.168 HD
HETATM   25  N3A ZID A 300       7.215  33.694 -11.319  1.00 26.02    -0.336 N 
ATOM     26  H3A ZID A 300       6.670  33.845 -12.169  1.00  0.00     0.168 HD
BRANCH  20  27
HETATM   27  N6A ZID A 300       9.378  33.020  -7.930  1.00 26.06    -0.383 N 
ATOM     28 2H6A ZID A 300      10.377  32.822  -7.994  1.00  0.00     0.157 HD
ATOM     29 1H6A ZID A 300       8.945  33.048  -7.007  1.00  0.00     0.157 HD
ENDBRANCH  20  27
ENDBRANCH  12  15
BRANCH  13  30
HETATM   30  O2B ZID A 300       8.934  37.677 -13.229  1.00 34.28    -0.388 OA
ATOM     31  H2B ZID A 300       9.533  37.649 -13.967  1.00  0.00     0.210 HD
ENDBRANCH  13  30
BRANCH  14  32
HETATM   32  O3B ZID A 300       6.754  38.438 -14.441  1.00 26.39    -0.390 OA
ATOM     33  H3B ZID A 300       7.340  38.812 -13.794  1.00  0.00     0.210 HD
ENDBRANCH  14  32
ENDBRANCH   9  10
ENDBRANCH   8   9
ENDBRANCH   5   8
ENDBRANCH   4   5
ENDBRANCH   1   4
BRANCH   1  34
HETATM   34  O5D ZID A 300       0.772  32.920 -10.508  1.00 27.38    -0.287 OA
BRANCH  34  35
HETATM   35  C5D ZID A 300       1.559  32.590  -9.368  1.00 26.32     0.216 C 
BRANCH  35  36
HETATM   36  C4D ZID A 300       1.758  31.073  -9.323  1.00 26.54     0.180 C 
HETATM   37  O4D ZID A 300       0.748  30.532 -10.232  1.00 26.70    -0.353 OA
HETATM   38  C1D ZID A 300       1.384  29.580 -11.029  1.00 24.37     0.259 C 
HETATM   39  C2D ZID A 300       2.792  30.174 -11.225  1.00 23.83     0.198 C 
HETATM   40  C3D ZID A 300       3.149  30.632  -9.836  1.00 24.97     0.182 C 
BRANCH  38  41
HETATM   41  N1N ZID A 300       0.847  29.336 -12.347  1.00 25.28    -0.336 N 
HETATM   42  C2N ZID A 300       0.298  30.348 -13.068  1.00 22.44     0.111 A 
HETATM   43  C3N ZID A 300      -0.121  30.098 -14.319  1.00 25.89     0.056 A 
HETATM   44  C4N ZID A 300       0.070  28.778 -14.772  1.00 26.60    -0.007 A 
HETATM   45  C5N ZID A 300       0.719  27.803 -14.061  1.00 27.45     0.028 A 
HETATM   46  C6N ZID A 300       1.082  28.127 -12.810  1.00 24.23     0.094 A 
BRANCH  43  47
HETATM   47  C7N ZID A 300      -0.871  31.170 -15.122  1.00 28.02     0.251 C 
HETATM   48  O7N ZID A 300      -1.812  30.871 -15.882  1.00 26.84    -0.268 OA
HETATM   49  N7N ZID A 300      -0.343  32.375 -15.236  1.00 23.44    -0.366 N 
ATOM     50 2H7N ZID A 300       0.426  32.620 -14.614  1.00  0.00     0.159 HD
ATOM     51 1H7N ZID A 300      -0.842  33.087 -15.770  1.00  0.00     0.159 HD
ENDBRANCH  43  47
BRANCH  44  52
HETATM   52  C7Z ZID A 300       0.010  28.725 -16.133  1.00 27.75     0.185 C 
BRANCH  52  53
HETATM   53  O7Z ZID A 300       1.360  28.001 -16.072  1.00 23.71    -0.386 OA
ATOM     54  H7Z ZID A 300       1.226  27.795 -16.990  1.00  0.00     0.210 HD
ENDBRANCH  52  53
BRANCH  52  55
HETATM   55  C4Z ZID A 300      -0.503  27.693 -17.051  1.00 23.40    -0.023 A 
HETATM   56  C3Z ZID A 300      -1.255  28.015 -18.155  1.00 23.67     0.027 A 
HETATM   57  C2Z ZID A 300      -1.547  26.992 -19.045  1.00 22.98     0.088 A 
HETATM   58  N1Z ZID A 300      -1.084  25.728 -18.871  1.00 25.57    -0.375 N 
HETATM   59  C6Z ZID A 300      -0.279  25.398 -17.836  1.00 26.04     0.088 A 
ATOM     60  H1Z ZID A 300      -1.351  25.006 -19.540  1.00  0.00     0.164 HD
HETATM   61  C5Z ZID A 300       0.039  26.380 -16.925  1.00 24.83     0.027 A 
ENDBRANCH  52  55
ENDBRANCH  44  52
ENDBRANCH  38  41
BRANCH  39  62
HETATM   62  O2D ZID A 300       3.838  29.300 -11.755  1.00 23.60    -0.388 OA
ATOM     63  H2D ZID A 300       4.676  29.513 -11.361  1.00  0.00     0.210 HD
ENDBRANCH  39  62
BRANCH  40  64
HETATM   64  O3D ZID A 300       3.608  29.454  -9.105  1.00 26.13    -0.390 OA
ATOM     65  H3D ZID A 300       3.705  28.717  -9.698  1.00  0.00     0.210 HD
ENDBRANCH  40  64
ENDBRANCH  35  36
ENDBRANCH  34  35
ENDBRANCH   1  34
TORSDOF 19
ENDMDL
MODEL 8
REMARK VINA RESULT:     -10.5      3.200      5.496
REMARK  19 active torsions:
REMARK  status: ('A' for Active; 'I' for Inactive)
REMARK    1  A    between atoms: PA_1  and  O5B_4 
REMARK    2  A    between atoms: PA_1  and  O3_30 
REMARK    3  A    between atoms: O5B_4  and  C5B_5 
REMARK    4  A    between atoms: C5B_5  and  C4B_6 
REMARK    5  A    between atoms: C3B_8  and  O3B_9 
REMARK    6  A    between atoms: C2B_11  and  O2B_12 
REMARK    7  A    between atoms: C1B_14  and  N9A_15 
REMARK    8  A    between atoms: C6A_20  and  N6A_21 
REMARK    9  A    between atoms: O3_30  and  PN_31 
REMARK   10  A    between atoms: PN_31  and  O5D_34 
REMARK   11  A    between atoms: O5D_34  and  C5D_35 
REMARK   12  A    between atoms: C5D_35  and  C4D_36 
REMARK   13  A    between atoms: C3D_38  and  O3D_39 
REMARK   14  A    between atoms: C2D_41  and  O2D_42 
REMARK   15  A    between atoms: C1D_44  and  N1N_45 
REMARK   16  A    between atoms: C3N_47  and  C7N_48 
REMARK       I    between atoms: C7N_48  and  N7N_50 
REMARK   17  A    between atoms: C4N_53  and  C7Z_56 
REMARK   18  A    between atoms: C7Z_56  and  O7Z_57 
REMARK   19  A    between atoms: C7Z_56  and  C4Z_63 
ROOT
HETATM    1  PN  ZID A 300       5.422  28.602  -9.639  1.00 26.51     0.417 P 
HETATM    2  O1N ZID A 300       5.904  28.632  -8.225  1.00 30.48    -0.624 OA
HETATM    3  O2N ZID A 300       6.041  27.706 -10.674  1.00 28.40    -0.624 OA
ENDROOT
BRANCH   1   4
HETATM    4  O3  ZID A 300       5.380  30.171 -10.091  1.00 30.29    -0.180 OA
BRANCH   4   5
HETATM    5  PA  ZID A 300       6.454  30.968 -11.052  1.00 28.62     0.417 P 
HETATM    6  O1A ZID A 300       7.791  30.460 -10.576  1.00 28.37    -0.624 OA
HETATM    7  O2A ZID A 300       6.033  30.934 -12.488  1.00 30.19    -0.624 OA
BRANCH   5   8
HETATM    8  O5B ZID A 300       6.220  32.483 -10.617  1.00 29.52    -0.287 OA
BRANCH   8   9
HETATM    9  C5B ZID A 300       7.281  33.393 -10.397  1.00 27.76     0.216 C 
BRANCH   9  10
HETATM   10  C4B ZID A 300       6.748  34.667 -11.010  1.00 27.48     0.180 C 
HETATM   11  O4B ZID A 300       5.821  34.329 -12.034  1.00 27.81    -0.353 OA
HETATM   12  C1B ZID A 300       4.870  35.358 -12.040  1.00 28.20     0.262 C 
HETATM   13  C2B ZID A 300       4.580  35.594 -10.552  1.00 28.50     0.198 C 
HETATM   14  C3B ZID A 300       5.978  35.531  -9.984  1.00 25.42     0.182 C 
BRANCH  12  15
HETATM   15  N9A ZID A 300       3.625  35.078 -12.752  1.00 26.08    -0.297 N 
HETATM   16  C8A ZID A 300       2.973  35.922 -13.568  1.00 24.53     0.188 A 
HETATM   17  N7A ZID A 300       1.950  35.260 -14.091  1.00 23.35    -0.346 N 
HETATM   18  C5A ZID A 300       1.997  33.975 -13.646  1.00 25.38     0.122 A 
ATOM     19  H7A ZID A 300       1.247  35.649 -14.720  1.00  0.00     0.167 HD
HETATM   20  C6A ZID A 300       1.210  32.855 -13.865  1.00 23.71     0.131 A 
HETATM   21  C4A ZID A 300       3.076  33.874 -12.819  1.00 23.66     0.142 A 
HETATM   22  N1A ZID A 300       1.516  31.725 -13.222  1.00 27.06    -0.337 N 
HETATM   23  C2A ZID A 300       2.607  31.650 -12.424  1.00 25.81     0.183 A 
ATOM     24  H1A ZID A 300       0.919  30.905 -13.334  1.00  0.00     0.168 HD
HETATM   25  N3A ZID A 300       3.370  32.715 -12.212  1.00 26.02    -0.336 N 
ATOM     26  H3A ZID A 300       4.176  32.653 -11.590  1.00  0.00     0.168 HD
BRANCH  20  27
HETATM   27  N6A ZID A 300       0.134  32.893 -14.685  1.00 26.06    -0.383 N 
ATOM     28 2H6A ZID A 300      -0.472  32.076 -14.764  1.00  0.00     0.157 HD
ATOM     29 1H6A ZID A 300      -0.104  33.729 -15.218  1.00  0.00     0.157 HD
ENDBRANCH  20  27
ENDBRANCH  12  15
BRANCH  13  30
HETATM   30  O2B ZID A 300       3.947  36.864 -10.330  1.00 34.28    -0.388 OA
ATOM     31  H2B ZID A 300       3.045  36.883 -10.631  1.00  0.00     0.210 HD
ENDBRANCH  13  30
BRANCH  14  32
HETATM   32  O3B ZID A 300       6.534  36.827 -10.009  1.00 26.39    -0.390 OA
ATOM     33  H3B ZID A 300       5.943  37.405  -9.540  1.00  0.00     0.210 HD
ENDBRANCH  14  32
ENDBRANCH   9  10
ENDBRANCH   8   9
ENDBRANCH   5   8
ENDBRANCH   4   5
ENDBRANCH   1   4
BRANCH   1  34
HETATM   34  O5D ZID A 300       3.863  28.318  -9.702  1.00 27.38    -0.287 OA
BRANCH  34  35
HETATM   35  C5D ZID A 300       3.096  27.933  -8.565  1.00 26.32     0.216 C 
BRANCH  35  36
HETATM   36  C4D ZID A 300       1.795  28.739  -8.547  1.00 26.54     0.180 C 
HETATM   37  O4D ZID A 300       1.637  29.235  -9.914  1.00 26.70    -0.353 OA
HETATM   38  C1D ZID A 300       0.311  29.007 -10.281  1.00 24.37     0.259 C 
HETATM   39  C2D ZID A 300      -0.021  27.675  -9.582  1.00 23.83     0.198 C 
HETATM   40  C3D ZID A 300       0.556  27.876  -8.206  1.00 24.97     0.182 C 
BRANCH  38  41
HETATM   41  N1N ZID A 300       0.021  28.825 -11.684  1.00 25.28    -0.336 N 
HETATM   42  C2N ZID A 300      -0.979  29.525 -12.280  1.00 22.44     0.111 A 
HETATM   43  C3N ZID A 300      -1.168  29.385 -13.602  1.00 25.89     0.056 A 
HETATM   44  C4N ZID A 300      -0.275  28.513 -14.255  1.00 26.60    -0.007 A 
HETATM   45  C5N ZID A 300       0.788  27.898 -13.647  1.00 27.45     0.028 A 
HETATM   46  C6N ZID A 300       0.889  28.068 -12.321  1.00 24.23     0.094 A 
BRANCH  43  47
HETATM   47  C7N ZID A 300      -2.367  30.046 -14.296  1.00 28.02     0.251 C 
HETATM   48  O7N ZID A 300      -2.258  31.143 -14.874  1.00 26.84    -0.268 OA
HETATM   49  N7N ZID A 300      -3.584  29.601 -14.040  1.00 23.44    -0.366 N 
ATOM     50 2H7N ZID A 300      -3.674  28.702 -13.566  1.00  0.00     0.159 HD
ATOM     51 1H7N ZID A 300      -4.381  30.041 -14.501  1.00  0.00     0.159 HD
ENDBRANCH  43  47
BRANCH  44  52
HETATM   52  C7Z ZID A 300      -0.271  28.748 -15.597  1.00 27.75     0.185 C 
BRANCH  52  53
HETATM   53  O7Z ZID A 300       1.124  28.111 -15.610  1.00 23.71    -0.386 OA
ATOM     54  H7Z ZID A 300       0.679  27.272 -15.580  1.00  0.00     0.210 HD
ENDBRANCH  52  53
BRANCH  52  55
HETATM   55  C4Z ZID A 300      -0.665  27.907 -16.741  1.00 23.40    -0.023 A 
HETATM   56  C3Z ZID A 300      -1.311  28.430 -17.836  1.00 23.67     0.027 A 
HETATM   57  C2Z ZID A 300      -1.490  27.594 -18.928  1.00 22.98     0.088 A 
HETATM   58  N1Z ZID A 300      -1.018  26.322 -18.948  1.00 25.57    -0.375 N 
HETATM   59  C6Z ZID A 300      -0.313  25.804 -17.918  1.00 26.04     0.088 A 
ATOM     60  H1Z ZID A 300      -1.200  25.739 -19.766  1.00  0.00     0.164 HD
HETATM   61  C5Z ZID A 300      -0.109  26.596 -16.810  1.00 24.83     0.027 A 
ENDBRANCH  52  55
ENDBRANCH  44  52
ENDBRANCH  38  41
BRANCH  39  62
HETATM   62  O2D ZID A 300      -1.425  27.279  -9.490  1.00 23.60    -0.388 OA
ATOM     63  H2D ZID A 300      -1.928  27.688 -10.183  1.00  0.00     0.210 HD
ENDBRANCH  39  62
BRANCH  40  64
HETATM   64  O3D ZID A 300      -0.415  28.664  -7.450  1.00 26.13    -0.390 OA
ATOM     65  H3D ZID A 300      -0.869  28.111  -6.823  1.00  0.00     0.210 HD
ENDBRANCH  40  64
ENDBRANCH  35  36
ENDBRANCH  34  35
ENDBRANCH   1  34
TORSDOF 19
ENDMDL
MODEL 9
REMARK VINA RESULT:     -10.4      2.129      3.778
REMARK  19 active torsions:
REMARK  status: ('A' for Active; 'I' for Inactive)
REMARK    1  A    between atoms: PA_1  and  O5B_4 
REMARK    2  A    between atoms: PA_1  and  O3_30 
REMARK    3  A    between atoms: O5B_4  and  C5B_5 
REMARK    4  A    between atoms: C5B_5  and  C4B_6 
REMARK    5  A    between atoms: C3B_8  and  O3B_9 
REMARK    6  A    between atoms: C2B_11  and  O2B_12 
REMARK    7  A    between atoms: C1B_14  and  N9A_15 
REMARK    8  A    between atoms: C6A_20  and  N6A_21 
REMARK    9  A    between atoms: O3_30  and  PN_31 
REMARK   10  A    between atoms: PN_31  and  O5D_34 
REMARK   11  A    between atoms: O5D_34  and  C5D_35 
REMARK   12  A    between atoms: C5D_35  and  C4D_36 
REMARK   13  A    between atoms: C3D_38  and  O3D_39 
REMARK   14  A    between atoms: C2D_41  and  O2D_42 
REMARK   15  A    between atoms: C1D_44  and  N1N_45 
REMARK   16  A    between atoms: C3N_47  and  C7N_48 
REMARK       I    between atoms: C7N_48  and  N7N_50 
REMARK   17  A    between atoms: C4N_53  and  C7Z_56 
REMARK   18  A    between atoms: C7Z_56  and  O7Z_57 
REMARK   19  A    between atoms: C7Z_56  and  C4Z_63 
ROOT
HETATM    1  PN  ZID A 300       4.057  36.044 -12.857  1.00 26.51     0.417 P 
HETATM    2  O1N ZID A 300       4.494  36.790 -14.076  1.00 30.48    -0.624 OA
HETATM    3  O2N ZID A 300       3.987  36.694 -11.505  1.00 28.40    -0.624 OA
ENDROOT
BRANCH   1   4
HETATM    4  O3  ZID A 300       4.957  34.681 -12.867  1.00 30.29    -0.180 OA
BRANCH   4   5
HETATM    5  PA  ZID A 300       5.295  33.710 -14.153  1.00 28.62     0.417 P 
HETATM    6  O1A ZID A 300       4.020  32.927 -14.343  1.00 28.37    -0.624 OA
HETATM    7  O2A ZID A 300       5.953  34.475 -15.258  1.00 30.19    -0.624 OA
BRANCH   5   8
HETATM    8  O5B ZID A 300       6.460  32.791 -13.573  1.00 29.52    -0.287 OA
BRANCH   8   9
HETATM    9  C5B ZID A 300       6.214  31.581 -12.883  1.00 27.76     0.216 C 
BRANCH   9  10
HETATM   10  C4B ZID A 300       6.907  31.814 -11.560  1.00 27.48     0.180 C 
HETATM   11  O4B ZID A 300       7.778  32.931 -11.692  1.00 27.81    -0.353 OA
HETATM   12  C1B ZID A 300       7.797  33.546 -10.433  1.00 28.20     0.262 C 
HETATM   13  C2B ZID A 300       6.323  33.551 -10.007  1.00 28.50     0.198 C 
HETATM   14  C3B ZID A 300       5.908  32.162 -10.432  1.00 25.42     0.182 C 
BRANCH  12  15
HETATM   15  N9A ZID A 300       8.331  34.906 -10.391  1.00 26.08    -0.297 N 
HETATM   16  C8A ZID A 300       9.010  35.458  -9.373  1.00 24.53     0.188 A 
HETATM   17  N7A ZID A 300       9.405  36.662  -9.764  1.00 23.35    -0.346 N 
HETATM   18  C5A ZID A 300       9.024  36.840 -11.058  1.00 25.38     0.122 A 
ATOM     19  H7A ZID A 300       9.909  37.340  -9.191  1.00  0.00     0.167 HD
HETATM   20  C6A ZID A 300       9.171  37.877 -11.966  1.00 23.71     0.131 A 
HETATM   21  C4A ZID A 300       8.366  35.710 -11.444  1.00 23.66     0.142 A 
HETATM   22  N1A ZID A 300       8.625  37.744 -13.179  1.00 27.06    -0.337 N 
HETATM   23  C2A ZID A 300       7.997  36.600 -13.540  1.00 25.81     0.183 A 
ATOM     24  H1A ZID A 300       8.682  38.516 -13.843  1.00  0.00     0.168 HD
HETATM   25  N3A ZID A 300       7.856  35.601 -12.678  1.00 26.02    -0.336 N 
ATOM     26  H3A ZID A 300       7.360  34.753 -12.954  1.00  0.00     0.168 HD
BRANCH  20  27
HETATM   27  N6A ZID A 300       9.824  39.017 -11.644  1.00 26.06    -0.383 N 
ATOM     28 2H6A ZID A 300       9.883  39.777 -12.322  1.00  0.00     0.157 HD
ATOM     29 1H6A ZID A 300      10.247  39.151 -10.725  1.00  0.00     0.157 HD
ENDBRANCH  20  27
ENDBRANCH  12  15
BRANCH  13  30
HETATM   30  O2B ZID A 300       6.179  33.766  -8.594  1.00 34.28    -0.388 OA
ATOM     31  H2B ZID A 300       5.363  33.422  -8.251  1.00  0.00     0.210 HD
ENDBRANCH  13  30
BRANCH  14  32
HETATM   32  O3B ZID A 300       6.142  31.274  -9.362  1.00 26.39    -0.390 OA
ATOM     33  H3B ZID A 300       5.298  30.994  -9.028  1.00  0.00     0.210 HD
ENDBRANCH  14  32
ENDBRANCH   9  10
ENDBRANCH   8   9
ENDBRANCH   5   8
ENDBRANCH   4   5
ENDBRANCH   1   4
BRANCH   1  34
HETATM   34  O5D ZID A 300       2.640  35.367 -13.083  1.00 27.38    -0.287 OA
BRANCH  34  35
HETATM   35  C5D ZID A 300       1.431  35.898 -12.550  1.00 26.32     0.216 C 
BRANCH  35  36
HETATM   36  C4D ZID A 300       0.869  34.915 -11.520  1.00 26.54     0.180 C 
HETATM   37  O4D ZID A 300      -0.036  34.050 -12.275  1.00 26.70    -0.353 OA
HETATM   38  C1D ZID A 300       0.235  32.737 -11.888  1.00 24.37     0.259 C 
HETATM   39  C2D ZID A 300       1.759  32.750 -11.657  1.00 23.83     0.198 C 
HETATM   40  C3D ZID A 300       1.960  34.024 -10.880  1.00 24.97     0.182 C 
BRANCH  38  41
HETATM   41  N1N ZID A 300      -0.033  31.685 -12.840  1.00 25.28    -0.336 N 
HETATM   42  C2N ZID A 300      -0.757  30.594 -12.477  1.00 22.44     0.111 A 
HETATM   43  C3N ZID A 300      -1.050  29.674 -13.410  1.00 25.89     0.056 A 
HETATM   44  C4N ZID A 300      -0.575  29.949 -14.707  1.00 26.60    -0.007 A 
HETATM   45  C5N ZID A 300       0.066  31.106 -15.066  1.00 27.45     0.028 A 
HETATM   46  C6N ZID A 300       0.344  31.960 -14.070  1.00 24.23     0.094 A 
BRANCH  43  47
HETATM   47  C7N ZID A 300      -1.746  28.361 -13.023  1.00 28.02     0.251 C 
HETATM   48  O7N ZID A 300      -2.972  28.315 -12.811  1.00 26.84    -0.268 OA
HETATM   49  N7N ZID A 300      -1.012  27.336 -12.632  1.00 23.44    -0.366 N 
ATOM     50 2H7N ZID A 300      -0.008  27.373 -12.806  1.00  0.00     0.159 HD
ATOM     51 1H7N ZID A 300      -1.474  26.463 -12.374  1.00  0.00     0.159 HD
ENDBRANCH  43  47
BRANCH  44  52
HETATM   52  C7Z ZID A 300      -1.250  29.210 -15.633  1.00 27.75     0.185 C 
BRANCH  52  53
HETATM   53  O7Z ZID A 300      -0.952  30.344 -16.620  1.00 23.71    -0.386 OA
ATOM     54  H7Z ZID A 300      -1.525  29.891 -17.226  1.00  0.00     0.210 HD
ENDBRANCH  52  53
BRANCH  52  55
HETATM   55  C4Z ZID A 300      -0.789  28.224 -16.625  1.00 23.40    -0.023 A 
HETATM   56  C3Z ZID A 300      -0.126  27.079 -16.255  1.00 23.67     0.027 A 
HETATM   57  C2Z ZID A 300       0.117  26.137 -17.244  1.00 22.98     0.088 A 
HETATM   58  N1Z ZID A 300      -0.310  26.304 -18.521  1.00 25.57    -0.375 N 
HETATM   59  C6Z ZID A 300      -1.030  27.384 -18.899  1.00 26.04     0.088 A 
ATOM     60  H1Z ZID A 300      -0.080  25.594 -19.217  1.00  0.00     0.164 HD
HETATM   61  C5Z ZID A 300      -1.298  28.347 -17.952  1.00 24.83     0.027 A 
ENDBRANCH  52  55
ENDBRANCH  44  52
ENDBRANCH  38  41
BRANCH  39  62
HETATM   62  O2D ZID A 300       2.354  31.622 -10.944  1.00 23.60    -0.388 OA
ATOM     63  H2D ZID A 300       1.725  30.916 -10.861  1.00  0.00     0.210 HD
ENDBRANCH  39  62
BRANCH  40  64
HETATM   64  O3D ZID A 300       1.621  33.730  -9.489  1.00 26.13    -0.390 OA
ATOM     65  H3D ZID A 300       0.895  33.118  -9.450  1.00  0.00     0.210 HD
ENDBRANCH  40  64
ENDBRANCH  35  36
ENDBRANCH  34  35
ENDBRANCH   1  34
TORSDOF 19
ENDMDL
